-- Eclipse grid exported from SBED, a product from Geomodeling Technology Corp
-- More information about SBED is available at http://www.geomodeling.com/
-- SBED project name: project7 
-- Model name: 3D-Invariable-ImPerfectly Longitudinal 
-- Realization name: Bedding Realization 1 
-- Scaling factors used during export(x,y,z): 0.010000 0.010000 0.010000
-- SBED version: SBED 4.2 
-- Export date: 27/11/2012 
-- Export time: 15:28:23 
-- Length Unit : m
-- PERMX Unit : mD
-- PORO Unit : Fraction
 
MAPAXES
0.0000 0.0000
0.0000 0.2000
0.2000 0.2000 /

SPECGRID
20 20 23 1 F /

COORD
0.0000 0.0000 -0.0753 0.0000 0.0000 0.0000 
0.0100 0.0000 -0.0753 0.0100 0.0000 0.0000 
0.0200 0.0000 -0.0753 0.0200 0.0000 0.0000 
0.0300 0.0000 -0.0753 0.0300 0.0000 0.0000 
0.0400 0.0000 -0.0753 0.0400 0.0000 0.0000 
0.0500 0.0000 -0.0753 0.0500 0.0000 0.0000 
0.0600 0.0000 -0.0753 0.0600 0.0000 0.0000 
0.0700 0.0000 -0.0753 0.0700 0.0000 0.0000 
0.0800 0.0000 -0.0753 0.0800 0.0000 0.0000 
0.0900 0.0000 -0.0753 0.0900 0.0000 0.0000 
0.1000 0.0000 -0.0753 0.1000 0.0000 0.0000 
0.1100 0.0000 -0.0753 0.1100 0.0000 0.0000 
0.1200 0.0000 -0.0753 0.1200 0.0000 0.0000 
0.1300 0.0000 -0.0753 0.1300 0.0000 0.0000 
0.1400 0.0000 -0.0753 0.1400 0.0000 0.0000 
0.1500 0.0000 -0.0753 0.1500 0.0000 0.0000 
0.1600 0.0000 -0.0753 0.1600 0.0000 0.0000 
0.1700 0.0000 -0.0753 0.1700 0.0000 0.0000 
0.1800 0.0000 -0.0753 0.1800 0.0000 0.0000 
0.1900 0.0000 -0.0753 0.1900 0.0000 0.0000 
0.2000 0.0000 -0.0753 0.2000 0.0000 0.0000 
0.0000 0.0100 -0.0753 0.0000 0.0100 0.0000 
0.0100 0.0100 -0.0753 0.0100 0.0100 0.0000 
0.0200 0.0100 -0.0753 0.0200 0.0100 0.0000 
0.0300 0.0100 -0.0753 0.0300 0.0100 0.0000 
0.0400 0.0100 -0.0753 0.0400 0.0100 0.0000 
0.0500 0.0100 -0.0753 0.0500 0.0100 0.0000 
0.0600 0.0100 -0.0753 0.0600 0.0100 0.0000 
0.0700 0.0100 -0.0753 0.0700 0.0100 0.0000 
0.0800 0.0100 -0.0753 0.0800 0.0100 0.0000 
0.0900 0.0100 -0.0753 0.0900 0.0100 0.0000 
0.1000 0.0100 -0.0753 0.1000 0.0100 0.0000 
0.1100 0.0100 -0.0753 0.1100 0.0100 0.0000 
0.1200 0.0100 -0.0753 0.1200 0.0100 0.0000 
0.1300 0.0100 -0.0753 0.1300 0.0100 0.0000 
0.1400 0.0100 -0.0753 0.1400 0.0100 0.0000 
0.1500 0.0100 -0.0753 0.1500 0.0100 0.0000 
0.1600 0.0100 -0.0753 0.1600 0.0100 0.0000 
0.1700 0.0100 -0.0753 0.1700 0.0100 0.0000 
0.1800 0.0100 -0.0753 0.1800 0.0100 0.0000 
0.1900 0.0100 -0.0753 0.1900 0.0100 0.0000 
0.2000 0.0100 -0.0753 0.2000 0.0100 0.0000 
0.0000 0.0200 -0.0753 0.0000 0.0200 0.0000 
0.0100 0.0200 -0.0753 0.0100 0.0200 0.0000 
0.0200 0.0200 -0.0753 0.0200 0.0200 0.0000 
0.0300 0.0200 -0.0753 0.0300 0.0200 0.0000 
0.0400 0.0200 -0.0753 0.0400 0.0200 0.0000 
0.0500 0.0200 -0.0753 0.0500 0.0200 0.0000 
0.0600 0.0200 -0.0753 0.0600 0.0200 0.0000 
0.0700 0.0200 -0.0753 0.0700 0.0200 0.0000 
0.0800 0.0200 -0.0753 0.0800 0.0200 0.0000 
0.0900 0.0200 -0.0753 0.0900 0.0200 0.0000 
0.1000 0.0200 -0.0753 0.1000 0.0200 0.0000 
0.1100 0.0200 -0.0753 0.1100 0.0200 0.0000 
0.1200 0.0200 -0.0753 0.1200 0.0200 0.0000 
0.1300 0.0200 -0.0753 0.1300 0.0200 0.0000 
0.1400 0.0200 -0.0753 0.1400 0.0200 0.0000 
0.1500 0.0200 -0.0753 0.1500 0.0200 0.0000 
0.1600 0.0200 -0.0753 0.1600 0.0200 0.0000 
0.1700 0.0200 -0.0753 0.1700 0.0200 0.0000 
0.1800 0.0200 -0.0753 0.1800 0.0200 0.0000 
0.1900 0.0200 -0.0753 0.1900 0.0200 0.0000 
0.2000 0.0200 -0.0753 0.2000 0.0200 0.0000 
0.0000 0.0300 -0.0753 0.0000 0.0300 0.0000 
0.0100 0.0300 -0.0753 0.0100 0.0300 0.0000 
0.0200 0.0300 -0.0753 0.0200 0.0300 0.0000 
0.0300 0.0300 -0.0753 0.0300 0.0300 0.0000 
0.0400 0.0300 -0.0753 0.0400 0.0300 0.0000 
0.0500 0.0300 -0.0753 0.0500 0.0300 0.0000 
0.0600 0.0300 -0.0753 0.0600 0.0300 0.0000 
0.0700 0.0300 -0.0753 0.0700 0.0300 0.0000 
0.0800 0.0300 -0.0753 0.0800 0.0300 0.0000 
0.0900 0.0300 -0.0753 0.0900 0.0300 0.0000 
0.1000 0.0300 -0.0753 0.1000 0.0300 0.0000 
0.1100 0.0300 -0.0753 0.1100 0.0300 0.0000 
0.1200 0.0300 -0.0753 0.1200 0.0300 0.0000 
0.1300 0.0300 -0.0753 0.1300 0.0300 0.0000 
0.1400 0.0300 -0.0753 0.1400 0.0300 0.0000 
0.1500 0.0300 -0.0753 0.1500 0.0300 0.0000 
0.1600 0.0300 -0.0753 0.1600 0.0300 0.0000 
0.1700 0.0300 -0.0753 0.1700 0.0300 0.0000 
0.1800 0.0300 -0.0753 0.1800 0.0300 0.0000 
0.1900 0.0300 -0.0753 0.1900 0.0300 0.0000 
0.2000 0.0300 -0.0753 0.2000 0.0300 0.0000 
0.0000 0.0400 -0.0753 0.0000 0.0400 0.0000 
0.0100 0.0400 -0.0753 0.0100 0.0400 0.0000 
0.0200 0.0400 -0.0753 0.0200 0.0400 0.0000 
0.0300 0.0400 -0.0753 0.0300 0.0400 0.0000 
0.0400 0.0400 -0.0753 0.0400 0.0400 0.0000 
0.0500 0.0400 -0.0753 0.0500 0.0400 0.0000 
0.0600 0.0400 -0.0753 0.0600 0.0400 0.0000 
0.0700 0.0400 -0.0753 0.0700 0.0400 0.0000 
0.0800 0.0400 -0.0753 0.0800 0.0400 0.0000 
0.0900 0.0400 -0.0753 0.0900 0.0400 0.0000 
0.1000 0.0400 -0.0753 0.1000 0.0400 0.0000 
0.1100 0.0400 -0.0753 0.1100 0.0400 0.0000 
0.1200 0.0400 -0.0753 0.1200 0.0400 0.0000 
0.1300 0.0400 -0.0753 0.1300 0.0400 0.0000 
0.1400 0.0400 -0.0753 0.1400 0.0400 0.0000 
0.1500 0.0400 -0.0753 0.1500 0.0400 0.0000 
0.1600 0.0400 -0.0753 0.1600 0.0400 0.0000 
0.1700 0.0400 -0.0753 0.1700 0.0400 0.0000 
0.1800 0.0400 -0.0753 0.1800 0.0400 0.0000 
0.1900 0.0400 -0.0753 0.1900 0.0400 0.0000 
0.2000 0.0400 -0.0753 0.2000 0.0400 0.0000 
0.0000 0.0500 -0.0753 0.0000 0.0500 0.0000 
0.0100 0.0500 -0.0753 0.0100 0.0500 0.0000 
0.0200 0.0500 -0.0753 0.0200 0.0500 0.0000 
0.0300 0.0500 -0.0753 0.0300 0.0500 0.0000 
0.0400 0.0500 -0.0753 0.0400 0.0500 0.0000 
0.0500 0.0500 -0.0753 0.0500 0.0500 0.0000 
0.0600 0.0500 -0.0753 0.0600 0.0500 0.0000 
0.0700 0.0500 -0.0753 0.0700 0.0500 0.0000 
0.0800 0.0500 -0.0753 0.0800 0.0500 0.0000 
0.0900 0.0500 -0.0753 0.0900 0.0500 0.0000 
0.1000 0.0500 -0.0753 0.1000 0.0500 0.0000 
0.1100 0.0500 -0.0753 0.1100 0.0500 0.0000 
0.1200 0.0500 -0.0753 0.1200 0.0500 0.0000 
0.1300 0.0500 -0.0753 0.1300 0.0500 0.0000 
0.1400 0.0500 -0.0753 0.1400 0.0500 0.0000 
0.1500 0.0500 -0.0753 0.1500 0.0500 0.0000 
0.1600 0.0500 -0.0753 0.1600 0.0500 0.0000 
0.1700 0.0500 -0.0753 0.1700 0.0500 0.0000 
0.1800 0.0500 -0.0753 0.1800 0.0500 0.0000 
0.1900 0.0500 -0.0753 0.1900 0.0500 0.0000 
0.2000 0.0500 -0.0753 0.2000 0.0500 0.0000 
0.0000 0.0600 -0.0753 0.0000 0.0600 0.0000 
0.0100 0.0600 -0.0753 0.0100 0.0600 0.0000 
0.0200 0.0600 -0.0753 0.0200 0.0600 0.0000 
0.0300 0.0600 -0.0753 0.0300 0.0600 0.0000 
0.0400 0.0600 -0.0753 0.0400 0.0600 0.0000 
0.0500 0.0600 -0.0753 0.0500 0.0600 0.0000 
0.0600 0.0600 -0.0753 0.0600 0.0600 0.0000 
0.0700 0.0600 -0.0753 0.0700 0.0600 0.0000 
0.0800 0.0600 -0.0753 0.0800 0.0600 0.0000 
0.0900 0.0600 -0.0753 0.0900 0.0600 0.0000 
0.1000 0.0600 -0.0753 0.1000 0.0600 0.0000 
0.1100 0.0600 -0.0753 0.1100 0.0600 0.0000 
0.1200 0.0600 -0.0753 0.1200 0.0600 0.0000 
0.1300 0.0600 -0.0753 0.1300 0.0600 0.0000 
0.1400 0.0600 -0.0753 0.1400 0.0600 0.0000 
0.1500 0.0600 -0.0753 0.1500 0.0600 0.0000 
0.1600 0.0600 -0.0753 0.1600 0.0600 0.0000 
0.1700 0.0600 -0.0753 0.1700 0.0600 0.0000 
0.1800 0.0600 -0.0753 0.1800 0.0600 0.0000 
0.1900 0.0600 -0.0753 0.1900 0.0600 0.0000 
0.2000 0.0600 -0.0753 0.2000 0.0600 0.0000 
0.0000 0.0700 -0.0753 0.0000 0.0700 0.0000 
0.0100 0.0700 -0.0753 0.0100 0.0700 0.0000 
0.0200 0.0700 -0.0753 0.0200 0.0700 0.0000 
0.0300 0.0700 -0.0753 0.0300 0.0700 0.0000 
0.0400 0.0700 -0.0753 0.0400 0.0700 0.0000 
0.0500 0.0700 -0.0753 0.0500 0.0700 0.0000 
0.0600 0.0700 -0.0753 0.0600 0.0700 0.0000 
0.0700 0.0700 -0.0753 0.0700 0.0700 0.0000 
0.0800 0.0700 -0.0753 0.0800 0.0700 0.0000 
0.0900 0.0700 -0.0753 0.0900 0.0700 0.0000 
0.1000 0.0700 -0.0753 0.1000 0.0700 0.0000 
0.1100 0.0700 -0.0753 0.1100 0.0700 0.0000 
0.1200 0.0700 -0.0753 0.1200 0.0700 0.0000 
0.1300 0.0700 -0.0753 0.1300 0.0700 0.0000 
0.1400 0.0700 -0.0753 0.1400 0.0700 0.0000 
0.1500 0.0700 -0.0753 0.1500 0.0700 0.0000 
0.1600 0.0700 -0.0753 0.1600 0.0700 0.0000 
0.1700 0.0700 -0.0753 0.1700 0.0700 0.0000 
0.1800 0.0700 -0.0753 0.1800 0.0700 0.0000 
0.1900 0.0700 -0.0753 0.1900 0.0700 0.0000 
0.2000 0.0700 -0.0753 0.2000 0.0700 0.0000 
0.0000 0.0800 -0.0753 0.0000 0.0800 0.0000 
0.0100 0.0800 -0.0753 0.0100 0.0800 0.0000 
0.0200 0.0800 -0.0753 0.0200 0.0800 0.0000 
0.0300 0.0800 -0.0753 0.0300 0.0800 0.0000 
0.0400 0.0800 -0.0753 0.0400 0.0800 0.0000 
0.0500 0.0800 -0.0753 0.0500 0.0800 0.0000 
0.0600 0.0800 -0.0753 0.0600 0.0800 0.0000 
0.0700 0.0800 -0.0753 0.0700 0.0800 0.0000 
0.0800 0.0800 -0.0753 0.0800 0.0800 0.0000 
0.0900 0.0800 -0.0753 0.0900 0.0800 0.0000 
0.1000 0.0800 -0.0753 0.1000 0.0800 0.0000 
0.1100 0.0800 -0.0753 0.1100 0.0800 0.0000 
0.1200 0.0800 -0.0753 0.1200 0.0800 0.0000 
0.1300 0.0800 -0.0753 0.1300 0.0800 0.0000 
0.1400 0.0800 -0.0753 0.1400 0.0800 0.0000 
0.1500 0.0800 -0.0753 0.1500 0.0800 0.0000 
0.1600 0.0800 -0.0753 0.1600 0.0800 0.0000 
0.1700 0.0800 -0.0753 0.1700 0.0800 0.0000 
0.1800 0.0800 -0.0753 0.1800 0.0800 0.0000 
0.1900 0.0800 -0.0753 0.1900 0.0800 0.0000 
0.2000 0.0800 -0.0753 0.2000 0.0800 0.0000 
0.0000 0.0900 -0.0753 0.0000 0.0900 0.0000 
0.0100 0.0900 -0.0753 0.0100 0.0900 0.0000 
0.0200 0.0900 -0.0753 0.0200 0.0900 0.0000 
0.0300 0.0900 -0.0753 0.0300 0.0900 0.0000 
0.0400 0.0900 -0.0753 0.0400 0.0900 0.0000 
0.0500 0.0900 -0.0753 0.0500 0.0900 0.0000 
0.0600 0.0900 -0.0753 0.0600 0.0900 0.0000 
0.0700 0.0900 -0.0753 0.0700 0.0900 0.0000 
0.0800 0.0900 -0.0753 0.0800 0.0900 0.0000 
0.0900 0.0900 -0.0753 0.0900 0.0900 0.0000 
0.1000 0.0900 -0.0753 0.1000 0.0900 0.0000 
0.1100 0.0900 -0.0753 0.1100 0.0900 0.0000 
0.1200 0.0900 -0.0753 0.1200 0.0900 0.0000 
0.1300 0.0900 -0.0753 0.1300 0.0900 0.0000 
0.1400 0.0900 -0.0753 0.1400 0.0900 0.0000 
0.1500 0.0900 -0.0753 0.1500 0.0900 0.0000 
0.1600 0.0900 -0.0753 0.1600 0.0900 0.0000 
0.1700 0.0900 -0.0753 0.1700 0.0900 0.0000 
0.1800 0.0900 -0.0753 0.1800 0.0900 0.0000 
0.1900 0.0900 -0.0753 0.1900 0.0900 0.0000 
0.2000 0.0900 -0.0753 0.2000 0.0900 0.0000 
0.0000 0.1000 -0.0753 0.0000 0.1000 0.0000 
0.0100 0.1000 -0.0753 0.0100 0.1000 0.0000 
0.0200 0.1000 -0.0753 0.0200 0.1000 0.0000 
0.0300 0.1000 -0.0753 0.0300 0.1000 0.0000 
0.0400 0.1000 -0.0753 0.0400 0.1000 0.0000 
0.0500 0.1000 -0.0753 0.0500 0.1000 0.0000 
0.0600 0.1000 -0.0753 0.0600 0.1000 0.0000 
0.0700 0.1000 -0.0753 0.0700 0.1000 0.0000 
0.0800 0.1000 -0.0753 0.0800 0.1000 0.0000 
0.0900 0.1000 -0.0753 0.0900 0.1000 0.0000 
0.1000 0.1000 -0.0753 0.1000 0.1000 0.0000 
0.1100 0.1000 -0.0753 0.1100 0.1000 0.0000 
0.1200 0.1000 -0.0753 0.1200 0.1000 0.0000 
0.1300 0.1000 -0.0753 0.1300 0.1000 0.0000 
0.1400 0.1000 -0.0753 0.1400 0.1000 0.0000 
0.1500 0.1000 -0.0753 0.1500 0.1000 0.0000 
0.1600 0.1000 -0.0753 0.1600 0.1000 0.0000 
0.1700 0.1000 -0.0753 0.1700 0.1000 0.0000 
0.1800 0.1000 -0.0753 0.1800 0.1000 0.0000 
0.1900 0.1000 -0.0753 0.1900 0.1000 0.0000 
0.2000 0.1000 -0.0753 0.2000 0.1000 0.0000 
0.0000 0.1100 -0.0753 0.0000 0.1100 0.0000 
0.0100 0.1100 -0.0753 0.0100 0.1100 0.0000 
0.0200 0.1100 -0.0753 0.0200 0.1100 0.0000 
0.0300 0.1100 -0.0753 0.0300 0.1100 0.0000 
0.0400 0.1100 -0.0753 0.0400 0.1100 0.0000 
0.0500 0.1100 -0.0753 0.0500 0.1100 0.0000 
0.0600 0.1100 -0.0753 0.0600 0.1100 0.0000 
0.0700 0.1100 -0.0753 0.0700 0.1100 0.0000 
0.0800 0.1100 -0.0753 0.0800 0.1100 0.0000 
0.0900 0.1100 -0.0753 0.0900 0.1100 0.0000 
0.1000 0.1100 -0.0753 0.1000 0.1100 0.0000 
0.1100 0.1100 -0.0753 0.1100 0.1100 0.0000 
0.1200 0.1100 -0.0753 0.1200 0.1100 0.0000 
0.1300 0.1100 -0.0753 0.1300 0.1100 0.0000 
0.1400 0.1100 -0.0753 0.1400 0.1100 0.0000 
0.1500 0.1100 -0.0753 0.1500 0.1100 0.0000 
0.1600 0.1100 -0.0753 0.1600 0.1100 0.0000 
0.1700 0.1100 -0.0753 0.1700 0.1100 0.0000 
0.1800 0.1100 -0.0753 0.1800 0.1100 0.0000 
0.1900 0.1100 -0.0753 0.1900 0.1100 0.0000 
0.2000 0.1100 -0.0753 0.2000 0.1100 0.0000 
0.0000 0.1200 -0.0753 0.0000 0.1200 0.0000 
0.0100 0.1200 -0.0753 0.0100 0.1200 0.0000 
0.0200 0.1200 -0.0753 0.0200 0.1200 0.0000 
0.0300 0.1200 -0.0753 0.0300 0.1200 0.0000 
0.0400 0.1200 -0.0753 0.0400 0.1200 0.0000 
0.0500 0.1200 -0.0753 0.0500 0.1200 0.0000 
0.0600 0.1200 -0.0753 0.0600 0.1200 0.0000 
0.0700 0.1200 -0.0753 0.0700 0.1200 0.0000 
0.0800 0.1200 -0.0753 0.0800 0.1200 0.0000 
0.0900 0.1200 -0.0753 0.0900 0.1200 0.0000 
0.1000 0.1200 -0.0753 0.1000 0.1200 0.0000 
0.1100 0.1200 -0.0753 0.1100 0.1200 0.0000 
0.1200 0.1200 -0.0753 0.1200 0.1200 0.0000 
0.1300 0.1200 -0.0753 0.1300 0.1200 0.0000 
0.1400 0.1200 -0.0753 0.1400 0.1200 0.0000 
0.1500 0.1200 -0.0753 0.1500 0.1200 0.0000 
0.1600 0.1200 -0.0753 0.1600 0.1200 0.0000 
0.1700 0.1200 -0.0753 0.1700 0.1200 0.0000 
0.1800 0.1200 -0.0753 0.1800 0.1200 0.0000 
0.1900 0.1200 -0.0753 0.1900 0.1200 0.0000 
0.2000 0.1200 -0.0753 0.2000 0.1200 0.0000 
0.0000 0.1300 -0.0753 0.0000 0.1300 0.0000 
0.0100 0.1300 -0.0753 0.0100 0.1300 0.0000 
0.0200 0.1300 -0.0753 0.0200 0.1300 0.0000 
0.0300 0.1300 -0.0753 0.0300 0.1300 0.0000 
0.0400 0.1300 -0.0753 0.0400 0.1300 0.0000 
0.0500 0.1300 -0.0753 0.0500 0.1300 0.0000 
0.0600 0.1300 -0.0753 0.0600 0.1300 0.0000 
0.0700 0.1300 -0.0753 0.0700 0.1300 0.0000 
0.0800 0.1300 -0.0753 0.0800 0.1300 0.0000 
0.0900 0.1300 -0.0753 0.0900 0.1300 0.0000 
0.1000 0.1300 -0.0753 0.1000 0.1300 0.0000 
0.1100 0.1300 -0.0753 0.1100 0.1300 0.0000 
0.1200 0.1300 -0.0753 0.1200 0.1300 0.0000 
0.1300 0.1300 -0.0753 0.1300 0.1300 0.0000 
0.1400 0.1300 -0.0753 0.1400 0.1300 0.0000 
0.1500 0.1300 -0.0753 0.1500 0.1300 0.0000 
0.1600 0.1300 -0.0753 0.1600 0.1300 0.0000 
0.1700 0.1300 -0.0753 0.1700 0.1300 0.0000 
0.1800 0.1300 -0.0753 0.1800 0.1300 0.0000 
0.1900 0.1300 -0.0753 0.1900 0.1300 0.0000 
0.2000 0.1300 -0.0753 0.2000 0.1300 0.0000 
0.0000 0.1400 -0.0753 0.0000 0.1400 0.0000 
0.0100 0.1400 -0.0753 0.0100 0.1400 0.0000 
0.0200 0.1400 -0.0753 0.0200 0.1400 0.0000 
0.0300 0.1400 -0.0753 0.0300 0.1400 0.0000 
0.0400 0.1400 -0.0753 0.0400 0.1400 0.0000 
0.0500 0.1400 -0.0753 0.0500 0.1400 0.0000 
0.0600 0.1400 -0.0753 0.0600 0.1400 0.0000 
0.0700 0.1400 -0.0753 0.0700 0.1400 0.0000 
0.0800 0.1400 -0.0753 0.0800 0.1400 0.0000 
0.0900 0.1400 -0.0753 0.0900 0.1400 0.0000 
0.1000 0.1400 -0.0753 0.1000 0.1400 0.0000 
0.1100 0.1400 -0.0753 0.1100 0.1400 0.0000 
0.1200 0.1400 -0.0753 0.1200 0.1400 0.0000 
0.1300 0.1400 -0.0753 0.1300 0.1400 0.0000 
0.1400 0.1400 -0.0753 0.1400 0.1400 0.0000 
0.1500 0.1400 -0.0753 0.1500 0.1400 0.0000 
0.1600 0.1400 -0.0753 0.1600 0.1400 0.0000 
0.1700 0.1400 -0.0753 0.1700 0.1400 0.0000 
0.1800 0.1400 -0.0753 0.1800 0.1400 0.0000 
0.1900 0.1400 -0.0753 0.1900 0.1400 0.0000 
0.2000 0.1400 -0.0753 0.2000 0.1400 0.0000 
0.0000 0.1500 -0.0753 0.0000 0.1500 0.0000 
0.0100 0.1500 -0.0753 0.0100 0.1500 0.0000 
0.0200 0.1500 -0.0753 0.0200 0.1500 0.0000 
0.0300 0.1500 -0.0753 0.0300 0.1500 0.0000 
0.0400 0.1500 -0.0753 0.0400 0.1500 0.0000 
0.0500 0.1500 -0.0753 0.0500 0.1500 0.0000 
0.0600 0.1500 -0.0753 0.0600 0.1500 0.0000 
0.0700 0.1500 -0.0753 0.0700 0.1500 0.0000 
0.0800 0.1500 -0.0753 0.0800 0.1500 0.0000 
0.0900 0.1500 -0.0753 0.0900 0.1500 0.0000 
0.1000 0.1500 -0.0753 0.1000 0.1500 0.0000 
0.1100 0.1500 -0.0753 0.1100 0.1500 0.0000 
0.1200 0.1500 -0.0753 0.1200 0.1500 0.0000 
0.1300 0.1500 -0.0753 0.1300 0.1500 0.0000 
0.1400 0.1500 -0.0753 0.1400 0.1500 0.0000 
0.1500 0.1500 -0.0753 0.1500 0.1500 0.0000 
0.1600 0.1500 -0.0753 0.1600 0.1500 0.0000 
0.1700 0.1500 -0.0753 0.1700 0.1500 0.0000 
0.1800 0.1500 -0.0753 0.1800 0.1500 0.0000 
0.1900 0.1500 -0.0753 0.1900 0.1500 0.0000 
0.2000 0.1500 -0.0753 0.2000 0.1500 0.0000 
0.0000 0.1600 -0.0753 0.0000 0.1600 0.0000 
0.0100 0.1600 -0.0753 0.0100 0.1600 0.0000 
0.0200 0.1600 -0.0753 0.0200 0.1600 0.0000 
0.0300 0.1600 -0.0753 0.0300 0.1600 0.0000 
0.0400 0.1600 -0.0753 0.0400 0.1600 0.0000 
0.0500 0.1600 -0.0753 0.0500 0.1600 0.0000 
0.0600 0.1600 -0.0753 0.0600 0.1600 0.0000 
0.0700 0.1600 -0.0753 0.0700 0.1600 0.0000 
0.0800 0.1600 -0.0753 0.0800 0.1600 0.0000 
0.0900 0.1600 -0.0753 0.0900 0.1600 0.0000 
0.1000 0.1600 -0.0753 0.1000 0.1600 0.0000 
0.1100 0.1600 -0.0753 0.1100 0.1600 0.0000 
0.1200 0.1600 -0.0753 0.1200 0.1600 0.0000 
0.1300 0.1600 -0.0753 0.1300 0.1600 0.0000 
0.1400 0.1600 -0.0753 0.1400 0.1600 0.0000 
0.1500 0.1600 -0.0753 0.1500 0.1600 0.0000 
0.1600 0.1600 -0.0753 0.1600 0.1600 0.0000 
0.1700 0.1600 -0.0753 0.1700 0.1600 0.0000 
0.1800 0.1600 -0.0753 0.1800 0.1600 0.0000 
0.1900 0.1600 -0.0753 0.1900 0.1600 0.0000 
0.2000 0.1600 -0.0753 0.2000 0.1600 0.0000 
0.0000 0.1700 -0.0753 0.0000 0.1700 0.0000 
0.0100 0.1700 -0.0753 0.0100 0.1700 0.0000 
0.0200 0.1700 -0.0753 0.0200 0.1700 0.0000 
0.0300 0.1700 -0.0753 0.0300 0.1700 0.0000 
0.0400 0.1700 -0.0753 0.0400 0.1700 0.0000 
0.0500 0.1700 -0.0753 0.0500 0.1700 0.0000 
0.0600 0.1700 -0.0753 0.0600 0.1700 0.0000 
0.0700 0.1700 -0.0753 0.0700 0.1700 0.0000 
0.0800 0.1700 -0.0753 0.0800 0.1700 0.0000 
0.0900 0.1700 -0.0753 0.0900 0.1700 0.0000 
0.1000 0.1700 -0.0753 0.1000 0.1700 0.0000 
0.1100 0.1700 -0.0753 0.1100 0.1700 0.0000 
0.1200 0.1700 -0.0753 0.1200 0.1700 0.0000 
0.1300 0.1700 -0.0753 0.1300 0.1700 0.0000 
0.1400 0.1700 -0.0753 0.1400 0.1700 0.0000 
0.1500 0.1700 -0.0753 0.1500 0.1700 0.0000 
0.1600 0.1700 -0.0753 0.1600 0.1700 0.0000 
0.1700 0.1700 -0.0753 0.1700 0.1700 0.0000 
0.1800 0.1700 -0.0753 0.1800 0.1700 0.0000 
0.1900 0.1700 -0.0753 0.1900 0.1700 0.0000 
0.2000 0.1700 -0.0753 0.2000 0.1700 0.0000 
0.0000 0.1800 -0.0753 0.0000 0.1800 0.0000 
0.0100 0.1800 -0.0753 0.0100 0.1800 0.0000 
0.0200 0.1800 -0.0753 0.0200 0.1800 0.0000 
0.0300 0.1800 -0.0753 0.0300 0.1800 0.0000 
0.0400 0.1800 -0.0753 0.0400 0.1800 0.0000 
0.0500 0.1800 -0.0753 0.0500 0.1800 0.0000 
0.0600 0.1800 -0.0753 0.0600 0.1800 0.0000 
0.0700 0.1800 -0.0753 0.0700 0.1800 0.0000 
0.0800 0.1800 -0.0753 0.0800 0.1800 0.0000 
0.0900 0.1800 -0.0753 0.0900 0.1800 0.0000 
0.1000 0.1800 -0.0753 0.1000 0.1800 0.0000 
0.1100 0.1800 -0.0753 0.1100 0.1800 0.0000 
0.1200 0.1800 -0.0753 0.1200 0.1800 0.0000 
0.1300 0.1800 -0.0753 0.1300 0.1800 0.0000 
0.1400 0.1800 -0.0753 0.1400 0.1800 0.0000 
0.1500 0.1800 -0.0753 0.1500 0.1800 0.0000 
0.1600 0.1800 -0.0753 0.1600 0.1800 0.0000 
0.1700 0.1800 -0.0753 0.1700 0.1800 0.0000 
0.1800 0.1800 -0.0753 0.1800 0.1800 0.0000 
0.1900 0.1800 -0.0753 0.1900 0.1800 0.0000 
0.2000 0.1800 -0.0753 0.2000 0.1800 0.0000 
0.0000 0.1900 -0.0753 0.0000 0.1900 0.0000 
0.0100 0.1900 -0.0753 0.0100 0.1900 0.0000 
0.0200 0.1900 -0.0753 0.0200 0.1900 0.0000 
0.0300 0.1900 -0.0753 0.0300 0.1900 0.0000 
0.0400 0.1900 -0.0753 0.0400 0.1900 0.0000 
0.0500 0.1900 -0.0753 0.0500 0.1900 0.0000 
0.0600 0.1900 -0.0753 0.0600 0.1900 0.0000 
0.0700 0.1900 -0.0753 0.0700 0.1900 0.0000 
0.0800 0.1900 -0.0753 0.0800 0.1900 0.0000 
0.0900 0.1900 -0.0753 0.0900 0.1900 0.0000 
0.1000 0.1900 -0.0753 0.1000 0.1900 0.0000 
0.1100 0.1900 -0.0753 0.1100 0.1900 0.0000 
0.1200 0.1900 -0.0753 0.1200 0.1900 0.0000 
0.1300 0.1900 -0.0753 0.1300 0.1900 0.0000 
0.1400 0.1900 -0.0753 0.1400 0.1900 0.0000 
0.1500 0.1900 -0.0753 0.1500 0.1900 0.0000 
0.1600 0.1900 -0.0753 0.1600 0.1900 0.0000 
0.1700 0.1900 -0.0753 0.1700 0.1900 0.0000 
0.1800 0.1900 -0.0753 0.1800 0.1900 0.0000 
0.1900 0.1900 -0.0753 0.1900 0.1900 0.0000 
0.2000 0.1900 -0.0753 0.2000 0.1900 0.0000 
0.0000 0.2000 -0.0753 0.0000 0.2000 0.0000 
0.0100 0.2000 -0.0753 0.0100 0.2000 0.0000 
0.0200 0.2000 -0.0753 0.0200 0.2000 0.0000 
0.0300 0.2000 -0.0753 0.0300 0.2000 0.0000 
0.0400 0.2000 -0.0753 0.0400 0.2000 0.0000 
0.0500 0.2000 -0.0753 0.0500 0.2000 0.0000 
0.0600 0.2000 -0.0753 0.0600 0.2000 0.0000 
0.0700 0.2000 -0.0753 0.0700 0.2000 0.0000 
0.0800 0.2000 -0.0753 0.0800 0.2000 0.0000 
0.0900 0.2000 -0.0753 0.0900 0.2000 0.0000 
0.1000 0.2000 -0.0753 0.1000 0.2000 0.0000 
0.1100 0.2000 -0.0753 0.1100 0.2000 0.0000 
0.1200 0.2000 -0.0753 0.1200 0.2000 0.0000 
0.1300 0.2000 -0.0753 0.1300 0.2000 0.0000 
0.1400 0.2000 -0.0753 0.1400 0.2000 0.0000 
0.1500 0.2000 -0.0753 0.1500 0.2000 0.0000 
0.1600 0.2000 -0.0753 0.1600 0.2000 0.0000 
0.1700 0.2000 -0.0753 0.1700 0.2000 0.0000 
0.1800 0.2000 -0.0753 0.1800 0.2000 0.0000 
0.1900 0.2000 -0.0753 0.1900 0.2000 0.0000 
0.2000 0.2000 -0.0753 0.2000 0.2000 0.0000 
/

ZCORN
 -0.0753 -0.0753 -0.0753 -0.0753 -0.0753 -0.0753 -0.0753 -0.0753
 -0.0753 -0.0753 -0.0753 -0.0753 -0.0753 -0.0753 -0.0753 -0.0753
 -0.0753 -0.0753 -0.0753 -0.0753 -0.0753 -0.0753 -0.0753 -0.0753
 -0.0753 -0.0753 -0.0753 -0.0753 -0.0753 -0.0753 -0.0753 -0.0753
 -0.0753 -0.0753 -0.0753 -0.0753 -0.0753 -0.0753 -0.0753 -0.0753
 -0.0753 -0.0753 -0.0753 -0.0753 -0.0753 -0.0753 -0.0753 -0.0753
 -0.0753 -0.0753 -0.0753 -0.0753 -0.0753 -0.0753 -0.0753 -0.0753
 -0.0753 -0.0753 -0.0753 -0.0753 -0.0753 -0.0753 -0.0753 -0.0753
 -0.0753 -0.0753 -0.0753 -0.0753 -0.0753 -0.0753 -0.0753 -0.0753
 -0.0753 -0.0753 -0.0753 -0.0753 -0.0753 -0.0753 -0.0753 -0.0753
 -0.0753 -0.0753 -0.0753 -0.0753 -0.0753 -0.0753 -0.0753 -0.0753
 -0.0753 -0.0753 -0.0753 -0.0753 -0.0753 -0.0753 -0.0753 -0.0753
 -0.0753 -0.0753 -0.0753 -0.0753 -0.0753 -0.0753 -0.0753 -0.0753
 -0.0753 -0.0753 -0.0753 -0.0753 -0.0753 -0.0753 -0.0753 -0.0753
 -0.0753 -0.0753 -0.0753 -0.0753 -0.0753 -0.0753 -0.0753 -0.0753
 -0.0753 -0.0753 -0.0753 -0.0753 -0.0753 -0.0753 -0.0753 -0.0753
 -0.0753 -0.0753 -0.0753 -0.0753 -0.0753 -0.0753 -0.0753 -0.0753
 -0.0753 -0.0753 -0.0753 -0.0753 -0.0753 -0.0753 -0.0753 -0.0753
 -0.0753 -0.0753 -0.0753 -0.0753 -0.0753 -0.0753 -0.0753 -0.0753
 -0.0753 -0.0753 -0.0753 -0.0753 -0.0753 -0.0753 -0.0753 -0.0753
 -0.0753 -0.0753 -0.0753 -0.0753 -0.0753 -0.0753 -0.0753 -0.0753
 -0.0753 -0.0753 -0.0753 -0.0753 -0.0753 -0.0753 -0.0753 -0.0753
 -0.0753 -0.0753 -0.0753 -0.0753 -0.0753 -0.0753 -0.0753 -0.0753
 -0.0753 -0.0753 -0.0753 -0.0753 -0.0753 -0.0753 -0.0753 -0.0753
 -0.0753 -0.0753 -0.0753 -0.0753 -0.0753 -0.0753 -0.0753 -0.0753
 -0.0753 -0.0753 -0.0753 -0.0753 -0.0753 -0.0753 -0.0753 -0.0753
 -0.0753 -0.0753 -0.0753 -0.0753 -0.0753 -0.0753 -0.0753 -0.0753
 -0.0753 -0.0753 -0.0753 -0.0753 -0.0753 -0.0753 -0.0753 -0.0753
 -0.0753 -0.0753 -0.0753 -0.0753 -0.0753 -0.0753 -0.0753 -0.0753
 -0.0753 -0.0753 -0.0753 -0.0753 -0.0753 -0.0753 -0.0753 -0.0753
 -0.0753 -0.0753 -0.0753 -0.0753 -0.0753 -0.0753 -0.0753 -0.0753
 -0.0753 -0.0753 -0.0753 -0.0753 -0.0753 -0.0753 -0.0753 -0.0753
 -0.0753 -0.0753 -0.0753 -0.0753 -0.0753 -0.0753 -0.0753 -0.0753
 -0.0753 -0.0753 -0.0753 -0.0753 -0.0753 -0.0753 -0.0753 -0.0753
 -0.0753 -0.0753 -0.0753 -0.0753 -0.0753 -0.0753 -0.0753 -0.0753
 -0.0753 -0.0753 -0.0753 -0.0753 -0.0753 -0.0753 -0.0753 -0.0753
 -0.0753 -0.0753 -0.0753 -0.0753 -0.0753 -0.0753 -0.0753 -0.0753
 -0.0753 -0.0753 -0.0753 -0.0753 -0.0753 -0.0753 -0.0753 -0.0753
 -0.0753 -0.0753 -0.0753 -0.0753 -0.0753 -0.0753 -0.0753 -0.0753
 -0.0753 -0.0753 -0.0753 -0.0753 -0.0753 -0.0753 -0.0753 -0.0753
 -0.0753 -0.0753 -0.0753 -0.0753 -0.0753 -0.0753 -0.0753 -0.0753
 -0.0753 -0.0753 -0.0753 -0.0753 -0.0753 -0.0753 -0.0753 -0.0753
 -0.0753 -0.0753 -0.0753 -0.0753 -0.0753 -0.0753 -0.0753 -0.0753
 -0.0753 -0.0753 -0.0753 -0.0753 -0.0753 -0.0753 -0.0753 -0.0753
 -0.0753 -0.0753 -0.0753 -0.0753 -0.0753 -0.0753 -0.0753 -0.0753
 -0.0753 -0.0753 -0.0753 -0.0753 -0.0753 -0.0753 -0.0753 -0.0753
 -0.0753 -0.0753 -0.0753 -0.0753 -0.0753 -0.0753 -0.0753 -0.0753
 -0.0753 -0.0753 -0.0753 -0.0753 -0.0753 -0.0753 -0.0753 -0.0753
 -0.0753 -0.0753 -0.0753 -0.0753 -0.0753 -0.0753 -0.0753 -0.0753
 -0.0753 -0.0753 -0.0753 -0.0753 -0.0753 -0.0753 -0.0753 -0.0753
 -0.0753 -0.0753 -0.0753 -0.0753 -0.0753 -0.0753 -0.0753 -0.0753
 -0.0753 -0.0753 -0.0753 -0.0753 -0.0753 -0.0753 -0.0753 -0.0753
 -0.0753 -0.0753 -0.0753 -0.0753 -0.0753 -0.0753 -0.0753 -0.0753
 -0.0753 -0.0753 -0.0753 -0.0753 -0.0753 -0.0753 -0.0753 -0.0753
 -0.0753 -0.0753 -0.0753 -0.0753 -0.0753 -0.0753 -0.0753 -0.0753
 -0.0753 -0.0753 -0.0753 -0.0753 -0.0753 -0.0753 -0.0753 -0.0753
 -0.0753 -0.0753 -0.0753 -0.0753 -0.0753 -0.0753 -0.0753 -0.0753
 -0.0753 -0.0753 -0.0753 -0.0753 -0.0753 -0.0753 -0.0753 -0.0753
 -0.0753 -0.0753 -0.0753 -0.0753 -0.0753 -0.0753 -0.0753 -0.0753
 -0.0753 -0.0753 -0.0753 -0.0753 -0.0753 -0.0753 -0.0753 -0.0753
 -0.0753 -0.0753 -0.0753 -0.0753 -0.0753 -0.0753 -0.0753 -0.0753
 -0.0753 -0.0753 -0.0753 -0.0753 -0.0753 -0.0753 -0.0753 -0.0753
 -0.0753 -0.0753 -0.0753 -0.0753 -0.0753 -0.0753 -0.0753 -0.0753
 -0.0753 -0.0753 -0.0753 -0.0753 -0.0753 -0.0753 -0.0753 -0.0753
 -0.0753 -0.0753 -0.0753 -0.0753 -0.0753 -0.0753 -0.0753 -0.0753
 -0.0753 -0.0753 -0.0753 -0.0753 -0.0753 -0.0753 -0.0753 -0.0753
 -0.0753 -0.0753 -0.0753 -0.0753 -0.0753 -0.0753 -0.0753 -0.0753
 -0.0753 -0.0753 -0.0753 -0.0753 -0.0753 -0.0753 -0.0753 -0.0753
 -0.0753 -0.0753 -0.0753 -0.0753 -0.0753 -0.0753 -0.0753 -0.0753
 -0.0753 -0.0753 -0.0753 -0.0753 -0.0753 -0.0753 -0.0753 -0.0753
 -0.0753 -0.0753 -0.0753 -0.0753 -0.0753 -0.0753 -0.0753 -0.0753
 -0.0753 -0.0753 -0.0753 -0.0753 -0.0753 -0.0753 -0.0753 -0.0753
 -0.0753 -0.0753 -0.0753 -0.0753 -0.0753 -0.0753 -0.0753 -0.0753
 -0.0753 -0.0753 -0.0753 -0.0753 -0.0753 -0.0753 -0.0753 -0.0753
 -0.0753 -0.0753 -0.0753 -0.0753 -0.0753 -0.0753 -0.0753 -0.0753
 -0.0753 -0.0753 -0.0753 -0.0753 -0.0753 -0.0753 -0.0753 -0.0753
 -0.0753 -0.0753 -0.0753 -0.0753 -0.0753 -0.0753 -0.0753 -0.0753
 -0.0753 -0.0753 -0.0753 -0.0753 -0.0753 -0.0753 -0.0753 -0.0753
 -0.0753 -0.0753 -0.0753 -0.0753 -0.0753 -0.0753 -0.0753 -0.0753
 -0.0753 -0.0753 -0.0753 -0.0753 -0.0753 -0.0753 -0.0753 -0.0753
 -0.0753 -0.0753 -0.0753 -0.0753 -0.0753 -0.0753 -0.0753 -0.0753
 -0.0753 -0.0753 -0.0753 -0.0753 -0.0753 -0.0753 -0.0753 -0.0753
 -0.0753 -0.0753 -0.0753 -0.0753 -0.0753 -0.0753 -0.0753 -0.0753
 -0.0753 -0.0753 -0.0753 -0.0753 -0.0753 -0.0753 -0.0753 -0.0753
 -0.0753 -0.0753 -0.0753 -0.0753 -0.0753 -0.0753 -0.0753 -0.0753
 -0.0753 -0.0753 -0.0753 -0.0753 -0.0753 -0.0753 -0.0753 -0.0753
 -0.0753 -0.0753 -0.0753 -0.0753 -0.0753 -0.0753 -0.0753 -0.0753
 -0.0753 -0.0753 -0.0753 -0.0753 -0.0753 -0.0753 -0.0753 -0.0753
 -0.0753 -0.0753 -0.0753 -0.0753 -0.0753 -0.0753 -0.0753 -0.0753
 -0.0753 -0.0753 -0.0753 -0.0753 -0.0753 -0.0753 -0.0753 -0.0753
 -0.0753 -0.0753 -0.0753 -0.0753 -0.0753 -0.0753 -0.0753 -0.0753
 -0.0753 -0.0753 -0.0753 -0.0753 -0.0753 -0.0753 -0.0753 -0.0753
 -0.0753 -0.0753 -0.0753 -0.0753 -0.0753 -0.0753 -0.0753 -0.0753
 -0.0753 -0.0753 -0.0753 -0.0753 -0.0753 -0.0753 -0.0753 -0.0753
 -0.0753 -0.0753 -0.0753 -0.0753 -0.0753 -0.0753 -0.0753 -0.0753
 -0.0753 -0.0753 -0.0753 -0.0753 -0.0753 -0.0753 -0.0753 -0.0753
 -0.0753 -0.0753 -0.0753 -0.0753 -0.0753 -0.0753 -0.0753 -0.0753
 -0.0753 -0.0753 -0.0753 -0.0753 -0.0753 -0.0753 -0.0753 -0.0753
 -0.0753 -0.0753 -0.0753 -0.0753 -0.0753 -0.0753 -0.0753 -0.0753
 -0.0753 -0.0753 -0.0753 -0.0753 -0.0753 -0.0753 -0.0753 -0.0753
 -0.0753 -0.0753 -0.0753 -0.0753 -0.0753 -0.0753 -0.0753 -0.0753
 -0.0753 -0.0753 -0.0753 -0.0753 -0.0753 -0.0753 -0.0753 -0.0753
 -0.0753 -0.0753 -0.0753 -0.0753 -0.0753 -0.0753 -0.0753 -0.0753
 -0.0753 -0.0753 -0.0753 -0.0753 -0.0753 -0.0753 -0.0753 -0.0753
 -0.0753 -0.0753 -0.0753 -0.0753 -0.0753 -0.0753 -0.0753 -0.0753
 -0.0753 -0.0753 -0.0753 -0.0753 -0.0753 -0.0753 -0.0753 -0.0753
 -0.0753 -0.0753 -0.0753 -0.0753 -0.0753 -0.0753 -0.0753 -0.0753
 -0.0753 -0.0753 -0.0753 -0.0753 -0.0753 -0.0753 -0.0753 -0.0753
 -0.0753 -0.0753 -0.0753 -0.0753 -0.0753 -0.0753 -0.0753 -0.0753
 -0.0753 -0.0753 -0.0753 -0.0753 -0.0753 -0.0753 -0.0753 -0.0753
 -0.0753 -0.0753 -0.0753 -0.0753 -0.0753 -0.0753 -0.0753 -0.0753
 -0.0753 -0.0753 -0.0753 -0.0753 -0.0753 -0.0753 -0.0753 -0.0753
 -0.0753 -0.0753 -0.0753 -0.0753 -0.0753 -0.0753 -0.0753 -0.0753
 -0.0753 -0.0753 -0.0753 -0.0753 -0.0753 -0.0753 -0.0753 -0.0753
 -0.0753 -0.0753 -0.0753 -0.0753 -0.0753 -0.0753 -0.0753 -0.0753
 -0.0753 -0.0753 -0.0753 -0.0753 -0.0753 -0.0753 -0.0753 -0.0753
 -0.0753 -0.0753 -0.0753 -0.0753 -0.0753 -0.0753 -0.0753 -0.0753
 -0.0753 -0.0753 -0.0753 -0.0753 -0.0753 -0.0753 -0.0753 -0.0753
 -0.0753 -0.0753 -0.0753 -0.0753 -0.0753 -0.0753 -0.0753 -0.0753
 -0.0753 -0.0753 -0.0753 -0.0753 -0.0753 -0.0753 -0.0753 -0.0753
 -0.0753 -0.0753 -0.0753 -0.0753 -0.0753 -0.0753 -0.0753 -0.0753
 -0.0753 -0.0753 -0.0753 -0.0753 -0.0753 -0.0753 -0.0753 -0.0753
 -0.0753 -0.0753 -0.0753 -0.0753 -0.0753 -0.0753 -0.0753 -0.0753
 -0.0753 -0.0753 -0.0753 -0.0753 -0.0753 -0.0753 -0.0753 -0.0753
 -0.0753 -0.0753 -0.0753 -0.0753 -0.0753 -0.0753 -0.0753 -0.0753
 -0.0753 -0.0753 -0.0753 -0.0753 -0.0753 -0.0753 -0.0753 -0.0753
 -0.0753 -0.0753 -0.0753 -0.0753 -0.0753 -0.0753 -0.0753 -0.0753
 -0.0753 -0.0753 -0.0753 -0.0753 -0.0753 -0.0753 -0.0753 -0.0753
 -0.0753 -0.0753 -0.0753 -0.0753 -0.0753 -0.0753 -0.0753 -0.0753
 -0.0753 -0.0753 -0.0753 -0.0753 -0.0753 -0.0753 -0.0753 -0.0753
 -0.0753 -0.0753 -0.0753 -0.0753 -0.0753 -0.0753 -0.0753 -0.0753
 -0.0753 -0.0753 -0.0753 -0.0753 -0.0753 -0.0753 -0.0753 -0.0753
 -0.0753 -0.0753 -0.0753 -0.0753 -0.0753 -0.0753 -0.0753 -0.0753
 -0.0753 -0.0753 -0.0753 -0.0753 -0.0753 -0.0753 -0.0753 -0.0753
 -0.0753 -0.0753 -0.0753 -0.0753 -0.0753 -0.0753 -0.0753 -0.0753
 -0.0753 -0.0753 -0.0753 -0.0753 -0.0753 -0.0753 -0.0753 -0.0753
 -0.0753 -0.0753 -0.0753 -0.0753 -0.0753 -0.0753 -0.0753 -0.0753
 -0.0753 -0.0753 -0.0753 -0.0753 -0.0753 -0.0753 -0.0753 -0.0753
 -0.0753 -0.0753 -0.0753 -0.0753 -0.0753 -0.0753 -0.0753 -0.0753
 -0.0753 -0.0753 -0.0753 -0.0753 -0.0753 -0.0753 -0.0753 -0.0753
 -0.0753 -0.0753 -0.0753 -0.0753 -0.0753 -0.0753 -0.0753 -0.0753
 -0.0753 -0.0753 -0.0753 -0.0753 -0.0753 -0.0753 -0.0753 -0.0753
 -0.0753 -0.0753 -0.0753 -0.0753 -0.0753 -0.0753 -0.0753 -0.0753
 -0.0753 -0.0753 -0.0753 -0.0753 -0.0753 -0.0753 -0.0753 -0.0753
 -0.0753 -0.0753 -0.0753 -0.0753 -0.0753 -0.0753 -0.0753 -0.0753
 -0.0753 -0.0753 -0.0753 -0.0753 -0.0753 -0.0753 -0.0753 -0.0753
 -0.0753 -0.0753 -0.0753 -0.0753 -0.0753 -0.0753 -0.0753 -0.0753
 -0.0753 -0.0753 -0.0753 -0.0753 -0.0753 -0.0753 -0.0753 -0.0753
 -0.0753 -0.0753 -0.0753 -0.0753 -0.0753 -0.0753 -0.0753 -0.0753
 -0.0753 -0.0753 -0.0753 -0.0753 -0.0753 -0.0753 -0.0753 -0.0753
 -0.0753 -0.0753 -0.0753 -0.0753 -0.0753 -0.0753 -0.0753 -0.0753
 -0.0753 -0.0753 -0.0753 -0.0753 -0.0753 -0.0753 -0.0753 -0.0753
 -0.0753 -0.0753 -0.0753 -0.0753 -0.0753 -0.0753 -0.0753 -0.0753