-- Eclipse grid exported from SBED, a product from Geomodeling Technology Corp
-- More information about SBED is available at http://www.geomodeling.com/
-- SBED project name: project8 
-- Model name: Dipping-Regular Interbedded Mud Lamina-Thinning Upward 
-- Realization name: Bedding Realization 1 
-- Scaling factors used during export(x,y,z): 0.010000 0.010000 0.010000
-- SBED version: SBED 4.2 
-- Export date: 30/11/2012 
-- Export time: 15:36:45 
-- Length Unit : m
-- PERMX Unit : mD
-- PORO Unit : Fraction
 
MAPAXES
0.0000 0.0000
0.0000 0.0800
0.0800 0.0800 /

SPECGRID
8 8 10 1 F /

COORD
0.0000 0.0000 -0.0908 0.0000 0.0000 0.0000 
0.0100 0.0000 -0.0908 0.0100 0.0000 0.0000 
0.0200 0.0000 -0.0908 0.0200 0.0000 0.0000 
0.0300 0.0000 -0.0908 0.0300 0.0000 0.0000 
0.0400 0.0000 -0.0908 0.0400 0.0000 0.0000 
0.0500 0.0000 -0.0908 0.0500 0.0000 0.0000 
0.0600 0.0000 -0.0908 0.0600 0.0000 0.0000 
0.0700 0.0000 -0.0908 0.0700 0.0000 0.0000 
0.0800 0.0000 -0.0908 0.0800 0.0000 0.0000 
0.0000 0.0100 -0.0908 0.0000 0.0100 0.0000 
0.0100 0.0100 -0.0908 0.0100 0.0100 0.0000 
0.0200 0.0100 -0.0908 0.0200 0.0100 0.0000 
0.0300 0.0100 -0.0908 0.0300 0.0100 0.0000 
0.0400 0.0100 -0.0908 0.0400 0.0100 0.0000 
0.0500 0.0100 -0.0908 0.0500 0.0100 0.0000 
0.0600 0.0100 -0.0908 0.0600 0.0100 0.0000 
0.0700 0.0100 -0.0908 0.0700 0.0100 0.0000 
0.0800 0.0100 -0.0908 0.0800 0.0100 0.0000 
0.0000 0.0200 -0.0908 0.0000 0.0200 0.0000 
0.0100 0.0200 -0.0908 0.0100 0.0200 0.0000 
0.0200 0.0200 -0.0908 0.0200 0.0200 0.0000 
0.0300 0.0200 -0.0908 0.0300 0.0200 0.0000 
0.0400 0.0200 -0.0908 0.0400 0.0200 0.0000 
0.0500 0.0200 -0.0908 0.0500 0.0200 0.0000 
0.0600 0.0200 -0.0908 0.0600 0.0200 0.0000 
0.0700 0.0200 -0.0908 0.0700 0.0200 0.0000 
0.0800 0.0200 -0.0908 0.0800 0.0200 0.0000 
0.0000 0.0300 -0.0908 0.0000 0.0300 0.0000 
0.0100 0.0300 -0.0908 0.0100 0.0300 0.0000 
0.0200 0.0300 -0.0908 0.0200 0.0300 0.0000 
0.0300 0.0300 -0.0908 0.0300 0.0300 0.0000 
0.0400 0.0300 -0.0908 0.0400 0.0300 0.0000 
0.0500 0.0300 -0.0908 0.0500 0.0300 0.0000 
0.0600 0.0300 -0.0908 0.0600 0.0300 0.0000 
0.0700 0.0300 -0.0908 0.0700 0.0300 0.0000 
0.0800 0.0300 -0.0908 0.0800 0.0300 0.0000 
0.0000 0.0400 -0.0908 0.0000 0.0400 0.0000 
0.0100 0.0400 -0.0908 0.0100 0.0400 0.0000 
0.0200 0.0400 -0.0908 0.0200 0.0400 0.0000 
0.0300 0.0400 -0.0908 0.0300 0.0400 0.0000 
0.0400 0.0400 -0.0908 0.0400 0.0400 0.0000 
0.0500 0.0400 -0.0908 0.0500 0.0400 0.0000 
0.0600 0.0400 -0.0908 0.0600 0.0400 0.0000 
0.0700 0.0400 -0.0908 0.0700 0.0400 0.0000 
0.0800 0.0400 -0.0908 0.0800 0.0400 0.0000 
0.0000 0.0500 -0.0908 0.0000 0.0500 0.0000 
0.0100 0.0500 -0.0908 0.0100 0.0500 0.0000 
0.0200 0.0500 -0.0908 0.0200 0.0500 0.0000 
0.0300 0.0500 -0.0908 0.0300 0.0500 0.0000 
0.0400 0.0500 -0.0908 0.0400 0.0500 0.0000 
0.0500 0.0500 -0.0908 0.0500 0.0500 0.0000 
0.0600 0.0500 -0.0908 0.0600 0.0500 0.0000 
0.0700 0.0500 -0.0908 0.0700 0.0500 0.0000 
0.0800 0.0500 -0.0908 0.0800 0.0500 0.0000 
0.0000 0.0600 -0.0908 0.0000 0.0600 0.0000 
0.0100 0.0600 -0.0908 0.0100 0.0600 0.0000 
0.0200 0.0600 -0.0908 0.0200 0.0600 0.0000 
0.0300 0.0600 -0.0908 0.0300 0.0600 0.0000 
0.0400 0.0600 -0.0908 0.0400 0.0600 0.0000 
0.0500 0.0600 -0.0908 0.0500 0.0600 0.0000 
0.0600 0.0600 -0.0908 0.0600 0.0600 0.0000 
0.0700 0.0600 -0.0908 0.0700 0.0600 0.0000 
0.0800 0.0600 -0.0908 0.0800 0.0600 0.0000 
0.0000 0.0700 -0.0908 0.0000 0.0700 0.0000 
0.0100 0.0700 -0.0908 0.0100 0.0700 0.0000 
0.0200 0.0700 -0.0908 0.0200 0.0700 0.0000 
0.0300 0.0700 -0.0908 0.0300 0.0700 0.0000 
0.0400 0.0700 -0.0908 0.0400 0.0700 0.0000 
0.0500 0.0700 -0.0908 0.0500 0.0700 0.0000 
0.0600 0.0700 -0.0908 0.0600 0.0700 0.0000 
0.0700 0.0700 -0.0908 0.0700 0.0700 0.0000 
0.0800 0.0700 -0.0908 0.0800 0.0700 0.0000 
0.0000 0.0800 -0.0908 0.0000 0.0800 0.0000 
0.0100 0.0800 -0.0908 0.0100 0.0800 0.0000 
0.0200 0.0800 -0.0908 0.0200 0.0800 0.0000 
0.0300 0.0800 -0.0908 0.0300 0.0800 0.0000 
0.0400 0.0800 -0.0908 0.0400 0.0800 0.0000 
0.0500 0.0800 -0.0908 0.0500 0.0800 0.0000 
0.0600 0.0800 -0.0908 0.0600 0.0800 0.0000 
0.0700 0.0800 -0.0908 0.0700 0.0800 0.0000 
0.0800 0.0800 -0.0908 0.0800 0.0800 0.0000 
/

ZCORN
 -0.0908 -0.0908 -0.0908 -0.0908 -0.0908 -0.0908 -0.0908 -0.0908
 -0.0908 -0.0908 -0.0908 -0.0908 -0.0908 -0.0908 -0.0908 -0.0908
 -0.0908 -0.0908 -0.0908 -0.0908 -0.0908 -0.0908 -0.0908 -0.0908
 -0.0908 -0.0908 -0.0908 -0.0908 -0.0908 -0.0908 -0.0908 -0.0908
 -0.0908 -0.0908 -0.0908 -0.0908 -0.0908 -0.0908 -0.0908 -0.0908
 -0.0908 -0.0908 -0.0908 -0.0908 -0.0908 -0.0908 -0.0908 -0.0908
 -0.0908 -0.0908 -0.0908 -0.0908 -0.0908 -0.0908 -0.0908 -0.0908
 -0.0908 -0.0908 -0.0908 -0.0908 -0.0908 -0.0908 -0.0908 -0.0908
 -0.0908 -0.0908 -0.0908 -0.0908 -0.0908 -0.0908 -0.0908 -0.0908
 -0.0908 -0.0908 -0.0908 -0.0908 -0.0908 -0.0908 -0.0908 -0.0908
 -0.0908 -0.0908 -0.0908 -0.0908 -0.0908 -0.0908 -0.0908 -0.0908
 -0.0908 -0.0908 -0.0908 -0.0908 -0.0908 -0.0908 -0.0908 -0.0908
 -0.0908 -0.0908 -0.0908 -0.0908 -0.0908 -0.0908 -0.0908 -0.0908
 -0.0908 -0.0908 -0.0908 -0.0908 -0.0908 -0.0908 -0.0908 -0.0908
 -0.0908 -0.0908 -0.0908 -0.0908 -0.0908 -0.0908 -0.0908 -0.0908
 -0.0908 -0.0908 -0.0908 -0.0908 -0.0908 -0.0908 -0.0908 -0.0908
 -0.0908 -0.0908 -0.0908 -0.0908 -0.0908 -0.0908 -0.0908 -0.0908
 -0.0908 -0.0908 -0.0908 -0.0908 -0.0908 -0.0908 -0.0908 -0.0908
 -0.0908 -0.0908 -0.0908 -0.0908 -0.0908 -0.0908 -0.0908 -0.0908
 -0.0908 -0.0908 -0.0908 -0.0908 -0.0908 -0.0908 -0.0908 -0.0908
 -0.0908 -0.0908 -0.0908 -0.0908 -0.0908 -0.0908 -0.0908 -0.0908
 -0.0908 -0.0908 -0.0908 -0.0908 -0.0908 -0.0908 -0.0908 -0.0908
 -0.0908 -0.0908 -0.0908 -0.0908 -0.0908 -0.0908 -0.0908 -0.0908
 -0.0908 -0.0908 -0.0908 -0.0908 -0.0908 -0.0908 -0.0908 -0.0908
 -0.0908 -0.0908 -0.0908 -0.0908 -0.0908 -0.0908 -0.0908 -0.0908
 -0.0908 -0.0908 -0.0908 -0.0908 -0.0908 -0.0908 -0.0908 -0.0908
 -0.0908 -0.0908 -0.0908 -0.0908 -0.0908 -0.0908 -0.0908 -0.0908
 -0.0908 -0.0908 -0.0908 -0.0908 -0.0908 -0.0908 -0.0908 -0.0908
 -0.0908 -0.0908 -0.0908 -0.0908 -0.0908 -0.0908 -0.0908 -0.0908
 -0.0908 -0.0908 -0.0908 -0.0908 -0.0908 -0.0908 -0.0908 -0.0908
 -0.0908 -0.0908 -0.0908 -0.0908 -0.0908 -0.0908 -0.0908 -0.0908
 -0.0908 -0.0908 -0.0908 -0.0908 -0.0908 -0.0908 -0.0908 -0.0908
 -0.0907 -0.0907 -0.0907 -0.0907 -0.0907 -0.0907 -0.0907 -0.0907
 -0.0907 -0.0907 -0.0907 -0.0907 -0.0907 -0.0907 -0.0907 -0.0907
 -0.0895 -0.0895 -0.0895 -0.0895 -0.0895 -0.0895 -0.0895 -0.0895
 -0.0895 -0.0895 -0.0895 -0.0895 -0.0895 -0.0895 -0.0895 -0.0895
 -0.0895 -0.0895 -0.0895 -0.0895 -0.0895 -0.0895 -0.0895 -0.0895
 -0.0895 -0.0895 -0.0895 -0.0895 -0.0895 -0.0895 -0.0895 -0.0895
 -0.0882 -0.0882 -0.0882 -0.0882 -0.0882 -0.0882 -0.0882 -0.0882
 -0.0882 -0.0882 -0.0882 -0.0882 -0.0882 -0.0882 -0.0882 -0.0882
 -0.0882 -0.0882 -0.0882 -0.0882 -0.0882 -0.0882 -0.0882 -0.0882
 -0.0882 -0.0882 -0.0882 -0.0882 -0.0882 -0.0882 -0.0882 -0.0882
 -0.0870 -0.0870 -0.0870 -0.0870 -0.0870 -0.0870 -0.0870 -0.0870
 -0.0870 -0.0870 -0.0870 -0.0870 -0.0870 -0.0870 -0.0870 -0.0870
 -0.0870 -0.0870 -0.0870 -0.0870 -0.0870 -0.0870 -0.0870 -0.0870
 -0.0870 -0.0870 -0.0870 -0.0870 -0.0870 -0.0870 -0.0870 -0.0870
 -0.0857 -0.0857 -0.0857 -0.0857 -0.0857 -0.0857 -0.0857 -0.0857
 -0.0857 -0.0857 -0.0857 -0.0857 -0.0857 -0.0857 -0.0857 -0.0857
 -0.0857 -0.0857 -0.0857 -0.0857 -0.0857 -0.0857 -0.0857 -0.0857
 -0.0857 -0.0857 -0.0857 -0.0857 -0.0857 -0.0857 -0.0857 -0.0857
 -0.0845 -0.0845 -0.0845 -0.0845 -0.0845 -0.0845 -0.0845 -0.0845
 -0.0845 -0.0845 -0.0845 -0.0845 -0.0845 -0.0845 -0.0845 -0.0845
 -0.0845 -0.0845 -0.0845 -0.0845 -0.0845 -0.0845 -0.0845 -0.0845
 -0.0845 -0.0845 -0.0845 -0.0845 -0.0845 -0.0845 -0.0845 -0.0845
 -0.0832 -0.0832 -0.0832 -0.0832 -0.0832 -0.0832 -0.0832 -0.0832
 -0.0832 -0.0832 -0.0832 -0.0832 -0.0832 -0.0832 -0.0832 -0.0832
 -0.0832 -0.0832 -0.0832 -0.0832 -0.0832 -0.0832 -0.0832 -0.0832
 -0.0832 -0.0832 -0.0832 -0.0832 -0.0832 -0.0832 -0.0832 -0.0832
 -0.0820 -0.0820 -0.0820 -0.0820 -0.0820 -0.0820 -0.0820 -0.0820
 -0.0820 -0.0820 -0.0820 -0.0820 -0.0820 -0.0820 -0.0820 -0.0820
 -0.0820 -0.0820 -0.0820 -0.0820 -0.0820 -0.0820 -0.0820 -0.0820
 -0.0820 -0.0820 -0.0820 -0.0820 -0.0820 -0.0820 -0.0820 -0.0820
 -0.0807 -0.0807 -0.0807 -0.0807 -0.0807 -0.0807 -0.0807 -0.0807
 -0.0807 -0.0807 -0.0807 -0.0807 -0.0807 -0.0807 -0.0807 -0.0807
 -0.0907 -0.0907 -0.0907 -0.0907 -0.0907 -0.0907 -0.0907 -0.0907
 -0.0907 -0.0907 -0.0907 -0.0907 -0.0907 -0.0907 -0.0907 -0.0907
 -0.0895 -0.0895 -0.0895 -0.0895 -0.0895 -0.0895 -0.0895 -0.0895
 -0.0895 -0.0895 -0.0895 -0.0895 -0.0895 -0.0895 -0.0895 -0.0895
 -0.0895 -0.0895 -0.0895 -0.0895 -0.0895 -0.0895 -0.0895 -0.0895
 -0.0895 -0.0895 -0.0895 -0.0895 -0.0895 -0.0895 -0.0895 -0.0895
 -0.0882 -0.0882 -0.0882 -0.0882 -0.0882 -0.0882 -0.0882 -0.0882
 -0.0882 -0.0882 -0.0882 -0.0882 -0.0882 -0.0882 -0.0882 -0.0882
 -0.0882 -0.0882 -0.0882 -0.0882 -0.0882 -0.0882 -0.0882 -0.0882
 -0.0882 -0.0882 -0.0882 -0.0882 -0.0882 -0.0882 -0.0882 -0.0882
 -0.0870 -0.0870 -0.0870 -0.0870 -0.0870 -0.0870 -0.0870 -0.0870
 -0.0870 -0.0870 -0.0870 -0.0870 -0.0870 -0.0870 -0.0870 -0.0870
 -0.0870 -0.0870 -0.0870 -0.0870 -0.0870 -0.0870 -0.0870 -0.0870
 -0.0870 -0.0870 -0.0870 -0.0870 -0.0870 -0.0870 -0.0870 -0.0870
 -0.0857 -0.0857 -0.0857 -0.0857 -0.0857 -0.0857 -0.0857 -0.0857
 -0.0857 -0.0857 -0.0857 -0.0857 -0.0857 -0.0857 -0.0857 -0.0857
 -0.0857 -0.0857 -0.0857 -0.0857 -0.0857 -0.0857 -0.0857 -0.0857
 -0.0857 -0.0857 -0.0857 -0.0857 -0.0857 -0.0857 -0.0857 -0.0857
 -0.0845 -0.0845 -0.0845 -0.0845 -0.0845 -0.0845 -0.0845 -0.0845
 -0.0845 -0.0845 -0.0845 -0.0845 -0.0845 -0.0845 -0.0845 -0.0845
 -0.0845 -0.0845 -0.0845 -0.0845 -0.0845 -0.0845 -0.0845 -0.0845
 -0.0845 -0.0845 -0.0845 -0.0845 -0.0845 -0.0845 -0.0845 -0.0845
 -0.0832 -0.0832 -0.0832 -0.0832 -0.0832 -0.0832 -0.0832 -0.0832
 -0.0832 -0.0832 -0.0832 -0.0832 -0.0832 -0.0832 -0.0832 -0.0832
 -0.0832 -0.0832 -0.0832 -0.0832 -0.0832 -0.0832 -0.0832 -0.0832
 -0.0832 -0.0832 -0.0832 -0.0832 -0.0832 -0.0832 -0.0832 -0.0832
 -0.0820 -0.0820 -0.0820 -0.0820 -0.0820 -0.0820 -0.0820 -0.0820
 -0.0820 -0.0820 -0.0820 -0.0820 -0.0820 -0.0820 -0.0820 -0.0820
 -0.0820 -0.0820 -0.0820 -0.0820 -0.0820 -0.0820 -0.0820 -0.0820
 -0.0820 -0.0820 -0.0820 -0.0820 -0.0820 -0.0820 -0.0820 -0.0820
 -0.0807 -0.0807 -0.0807 -0.0807 -0.0807 -0.0807 -0.0807 -0.0807
 -0.0807 -0.0807 -0.0807 -0.0807 -0.0807 -0.0807 -0.0807 -0.0807
 -0.0806 -0.0806 -0.0806 -0.0806 -0.0806 -0.0806 -0.0806 -0.0806
 -0.0806 -0.0806 -0.0806 -0.0806 -0.0806 -0.0806 -0.0806 -0.0806
 -0.0794 -0.0794 -0.0794 -0.0794 -0.0794 -0.0794 -0.0794 -0.0794
 -0.0794 -0.0794 -0.0794 -0.0794 -0.0794 -0.0794 -0.0794 -0.0794
 -0.0794 -0.0794 -0.0794 -0.0794 -0.0794 -0.0794 -0.0794 -0.0794
 -0.0794 -0.0794 -0.0794 -0.0794 -0.0794 -0.0794 -0.0794 -0.0794
 -0.0781 -0.0781 -0.0781 -0.0781 -0.0781 -0.0781 -0.0781 -0.0781
 -0.0781 -0.0781 -0.0781 -0.0781 -0.0781 -0.0781 -0.0781 -0.0781
 -0.0781 -0.0781 -0.0781 -0.0781 -0.0781 -0.0781 -0.0781 -0.0781
 -0.0781 -0.0781 -0.0781 -0.0781 -0.0781 -0.0781 -0.0781 -0.0781
 -0.0769 -0.0769 -0.0769 -0.0769 -0.0769 -0.0769 -0.0769 -0.0769
 -0.0769 -0.0769 -0.0769 -0.0769 -0.0769 -0.0769 -0.0769 -0.0769
 -0.0769 -0.0769 -0.0769 -0.0769 -0.0769 -0.0769 -0.0769 -0.0769
 -0.0769 -0.0769 -0.0769 -0.0769 -0.0769 -0.0769 -0.0769 -0.0769
 -0.0756 -0.0756 -0.0756 -0.0756 -0.0756 -0.0756 -0.0756 -0.0756
 -0.0756 -0.0756 -0.0756 -0.0756 -0.0756 -0.0756 -0.0756 -0.0756
 -0.0756 -0.0756 -0.0756 -0.0756 -0.0756 -0.0756 -0.0756 -0.0756
 -0.0756 -0.0756 -0.0756 -0.0756 -0.0756 -0.0756 -0.0756 -0.0756
 -0.0744 -0.0744 -0.0744 -0.0744 -0.0744 -0.0744 -0.0744 -0.0744
 -0.0744 -0.0744 -0.0744 -0.0744 -0.0744 -0.0744 -0.0744 -0.0744
 -0.0744 -0.0744 -0.0744 -0.0744 -0.0744 -0.0744 -0.0744 -0.0744
 -0.0744 -0.0744 -0.0744 -0.0744 -0.0744 -0.0744 -0.0744 -0.0744
 -0.0731 -0.0731 -0.0731 -0.0731 -0.0731 -0.0731 -0.0731 -0.0731
 -0.0731 -0.0731 -0.0731 -0.0731 -0.0731 -0.0731 -0.0731 -0.0731
 -0.0731 -0.0731 -0.0731 -0.0731 -0.0731 -0.0731 -0.0731 -0.0731
 -0.0731 -0.0731 -0.0731 -0.0731 -0.0731 -0.0731 -0.0731 -0.0731
 -0.0719 -0.0719 -0.0719 -0.0719 -0.0719 -0.0719 -0.0719 -0.0719
 -0.0719 -0.0719 -0.0719 -0.0719 -0.0719 -0.0719 -0.0719 -0.0719
 -0.0719 -0.0719 -0.0719 -0.0719 -0.0719 -0.0719 -0.0719 -0.0719
 -0.0719 -0.0719 -0.0719 -0.0719 -0.0719 -0.0719 -0.0719 -0.0719
 -0.0706 -0.0706 -0.0706 -0.0706 -0.0706 -0.0706 -0.0706 -0.0706
 -0.0706 -0.0706 -0.0706 -0.0706 -0.0706 -0.0706 -0.0706 -0.0706
 -0.0806 -0.0806 -0.0806 -0.0806 -0.0806 -0.0806 -0.0806 -0.0806
 -0.0806 -0.0806 -0.0806 -0.0806 -0.0806 -0.0806 -0.0806 -0.0806
 -0.0794 -0.0794 -0.0794 -0.0794 -0.0794 -0.0794 -0.0794 -0.0794
 -0.0794 -0.0794 -0.0794 -0.0794 -0.0794 -0.0794 -0.0794 -0.0794
 -0.0794 -0.0794 -0.0794 -0.0794 -0.0794 -0.0794 -0.0794 -0.0794
 -0.0794 -0.0794 -0.0794 -0.0794 -0.0794 -0.0794 -0.0794 -0.0794
 -0.0781 -0.0781 -0.0781 -0.0781 -0.0781 -0.0781 -0.0781 -0.0781
 -0.0781 -0.0781 -0.0781 -0.0781 -0.0781 -0.0781 -0.0781 -0.0781
 -0.0781 -0.0781 -0.0781 -0.0781 -0.0781 -0.0781 -0.0781 -0.0781
 -0.0781 -0.0781 -0.0781 -0.0781 -0.0781 -0.0781 -0.0781 -0.0781
 -0.0769 -0.0769 -0.0769 -0.0769 -0.0769 -0.0769 -0.0769 -0.0769
 -0.0769 -0.0769 -0.0769 -0.0769 -0.0769 -0.0769 -0.0769 -0.0769
 -0.0769 -0.0769 -0.0769 -0.0769 -0.0769 -0.0769 -0.0769 -0.0769
 -0.0769 -0.0769 -0.0769 -0.0769 -0.0769 -0.0769 -0.0769 -0.0769
 -0.0756 -0.0756 -0.0756 -0.0756 -0.0756 -0.0756 -0.0756 -0.0756
 -0.0756 -0.0756 -0.0756 -0.0756 -0.0756 -0.0756 -0.0756 -0.0756
 -0.0756 -0.0756 -0.0756 -0.0756 -0.0756 -0.0756 -0.0756 -0.0756
 -0.0756 -0.0756 -0.0756 -0.0756 -0.0756 -0.0756 -0.0756 -0.0756
 -0.0744 -0.0744 -0.0744 -0.0744 -0.0744 -0.0744 -0.0744 -0.0744
 -0.0744 -0.0744 -0.0744 -0.0744 -0.0744 -0.0744 -0.0744 -0.0744
 -0.0744 -0.0744 -0.0744 -0.0744 -0.0744 -0.0744 -0.0744 -0.0744
 -0.0744 -0.0744 -0.0744 -0.0744 -0.0744 -0.0744 -0.0744 -0.0744
 -0.0731 -0.0731 -0.0731 -0.0731 -0.0731 -0.0731 -0.0731 -0.0731
 -0.0731 -0.0731 -0.0731 -0.0731 -0.0731 -0.0731 -0.0731 -0.0731
 -0.0731 -0.0731 -0.0731 -0.0731 -0.0731 -0.0731 -0.0731 -0.0731
 -0.0731 -0.0731 -0.0731 -0.0731 -0.0731 -0.0731 -0.0731 -0.0731
 -0.0719 -0.0719 -0.0719 -0.0719 -0.0719 -0.0719 -0.0719 -0.0719
 -0.0719 -0.0719 -0.0719 -0.0719 -0.0719 -0.0719 -0.0719 -0.0719
 -0.0719 -0.0719 -0.0719 -0.0719 -0.0719 -0.0719 -0.0719 -0.0719
 -0.0719 -0.0719 -0.0719 -0.0719 -0.0719 -0.0719 -0.0719 -0.0719
 -0.0706 -0.0706 -0.0706 -0.0706 -0.0706 -0.0706 -0.0706 -0.0706
 -0.0706 -0.0706 -0.0706 -0.0706 -0.0706 -0.0706 -0.0706 -0.0706
 -0.0705 -0.0705 -0.0705 -0.0705 -0.0705 -0.0705 -0.0705 -0.0705
 -0.0705 -0.0705 -0.0705 -0.0705 -0.0705 -0.0705 -0.0705 -0.0705
 -0.0693 -0.0693 -0.0693 -0.0693 -0.0693 -0.0693 -0.0693 -0.0693
 -0.0693 -0.0693 -0.0693 -0.0693 -0.0693 -0.0693 -0.0693 -0.0693
 -0.0693 -0.0693 -0.0693 -0.0693 -0.0693 -0.0693 -0.0693 -0.0693
 -0.0693 -0.0693 -0.0693 -0.0693 -0.0693 -0.0693 -0.0693 -0.0693
 -0.0680 -0.0680 -0.0680 -0.0680 -0.0680 -0.0680 -0.0680 -0.0680
 -0.0680 -0.0680 -0.0680 -0.0680 -0.0680 -0.0680 -0.0680 -0.0680
 -0.0680 -0.0680 -0.0680 -0.0680 -0.0680 -0.0680 -0.0680 -0.0680
 -0.0680 -0.0680 -0.0680 -0.0680 -0.0680 -0.0680 -0.0680 -0.0680
 -0.0668 -0.0668 -0.0668 -0.0668 -0.0668 -0.0668 -0.0668 -0.0668
 -0.0668 -0.0668 -0.0668 -0.0668 -0.0668 -0.0668 -0.0668 -0.0668
 -0.0668 -0.0668 -0.0668 -0.0668 -0.0668 -0.0668 -0.0668 -0.0668
 -0.0668 -0.0668 -0.0668 -0.0668 -0.0668 -0.0668 -0.0668 -0.0668
 -0.0655 -0.0655 -0.0655 -0.0655 -0.0655 -0.0655 -0.0655 -0.0655
 -0.0655 -0.0655 -0.0655 -0.0655 -0.0655 -0.0655 -0.0655 -0.0655
 -0.0655 -0.0655 -0.0655 -0.0655 -0.0655 -0.0655 -0.0655 -0.0655
 -0.0655 -0.0655 -0.0655 -0.0655 -0.0655 -0.0655 -0.0655 -0.0655
 -0.0643 -0.0643 -0.0643 -0.0643 -0.0643 -0.0643 -0.0643 -0.0643
 -0.0643 -0.0643 -0.0643 -0.0643 -0.0643 -0.0643 -0.0643 -0.0643
 -0.0643 -0.0643 -0.0643 -0.0643 -0.0643 -0.0643 -0.0643 -0.0643
 -0.0643 -0.0643 -0.0643 -0.0643 -0.0643 -0.0643 -0.0643 -0.0643
 -0.0630 -0.0630 -0.0630 -0.0630 -0.0630 -0.0630 -0.0630 -0.0630
 -0.0630 -0.0630 -0.0630 -0.0630 -0.0630 -0.0630 -0.0630 -0.0630
 -0.0630 -0.0630 -0.0630 -0.0630 -0.0630 -0.0630 -0.0630 -0.0630
 -0.0630 -0.0630 -0.0630 -0.0630 -0.0630 -0.0630 -0.0630 -0.0630
 -0.0618 -0.0618 -0.0618 -0.0618 -0.0618 -0.0618 -0.0618 -0.0618
 -0.0618 -0.0618 -0.0618 -0.0618 -0.0618 -0.0618 -0.0618 -0.0618
 -0.0618 -0.0618 -0.0618 -0.0618 -0.0618 -0.0618 -0.0618 -0.0618
 -0.0618 -0.0618 -0.0618 -0.0618 -0.0618 -0.0618 -0.0618 -0.0618
 -0.0605 -0.0605 -0.0605 -0.0605 -0.0605 -0.0605 -0.0605 -0.0605
 -0.0605 -0.0605 -0.0605 -0.0605 -0.0605 -0.0605 -0.0605 -0.0605
 -0.0705 -0.0705 -0.0705 -0.0705 -0.0705 -0.0705 -0.0705 -0.0705
 -0.0705 -0.0705 -0.0705 -0.0705 -0.0705 -0.0705 -0.0705 -0.0705
 -0.0693 -0.0693 -0.0693 -0.0693 -0.0693 -0.0693 -0.0693 -0.0693
 -0.0693 -0.0693 -0.0693 -0.0693 -0.0693 -0.0693 -0.0693 -0.0693
 -0.0693 -0.0693 -0.0693 -0.0693 -0.0693 -0.0693 -0.0693 -0.0693
 -0.0693 -0.0693 -0.0693 -0.0693 -0.0693 -0.0693 -0.0693 -0.0693
 -0.0680 -0.0680 -0.0680 -0.0680 -0.0680 -0.0680 -0.0680 -0.0680
 -0.0680 -0.0680 -0.0680 -0.0680 -0.0680 -0.0680 -0.0680 -0.0680
 -0.0680 -0.0680 -0.0680 -0.0680 -0.0680 -0.0680 -0.0680 -0.0680
 -0.0680 -0.0680 -0.0680 -0.0680 -0.0680 -0.0680 -0.0680 -0.0680
 -0.0668 -0.0668 -0.0668 -0.0668 -0.0668 -0.0668 -0.0668 -0.0668
 -0.0668 -0.0668 -0.0668 -0.0668 -0.0668 -0.0668 -0.0668 -0.0668
 -0.0668 -0.0668 -0.0668 -0.0668 -0.0668 -0.0668 -0.0668 -0.0668
 -0.0668 -0.0668 -0.0668 -0.0668 -0.0668 -0.0668 -0.0668 -0.0668
 -0.0655 -0.0655 -0.0655 -0.0655 -0.0655 -0.0655 -0.0655 -0.0655
 -0.0655 -0.0655 -0.0655 -0.0655 -0.0655 -0.0655 -0.0655 -0.0655
 -0.0655 -0.0655 -0.0655 -0.0655 -0.0655 -0.0655 -0.0655 -0.0655
 -0.0655 -0.0655 -0.0655 -0.0655 -0.0655 -0.0655 -0.0655 -0.0655
 -0.0643 -0.0643 -0.0643 -0.0643 -0.0643 -0.0643 -0.0643 -0.0643
 -0.0643 -0.0643 -0.0643 -0.0643 -0.0643 -0.0643 -0.0643 -0.0643
 -0.0643 -0.0643 -0.0643 -0.0643 -0.0643 -0.0643 -0.0643 -0.0643
 -0.0643 -0.0643 -0.0643 -0.0643 -0.0643 -0.0643 -0.0643 -0.0643
 -0.0630 -0.0630 -0.0630 -0.0630 -0.0630 -0.0630 -0.0630 -0.0630
 -0.0630 -0.0630 -0.0630 -0.0630 -0.0630 -0.0630 -0.0630 -0.0630
 -0.0630 -0.0630 -0.0630 -0.0630 -0.0630 -0.0630 -0.0630 -0.0630
 -0.0630 -0.0630 -0.0630 -0.0630 -0.0630 -0.0630 -0.0630 -0.0630
 -0.0618 -0.0618 -0.0618 -0.0618 -0.0618 -0.0618 -0.0618 -0.0618
 -0.0618 -0.0618 -0.0618 -0.0618 -0.0618 -0.0618 -0.0618 -0.0618
 -0.0618 -0.0618 -0.0618 -0.0618 -0.0618 -0.0618 -0.0618 -0.0618
 -0.0618 -0.0618 -0.0618 -0.0618 -0.0618 -0.0618 -0.0618 -0.0618
 -0.0605 -0.0605 -0.0605 -0.0605 -0.0605 -0.0605 -0.0605 -0.0605
 -0.0605 -0.0605 -0.0605 -0.0605 -0.0605 -0.0605 -0.0605 -0.0605
 -0.0605 -0.0605 -0.0605 -0.0605 -0.0605 -0.0605 -0.0605 -0.0605
 -0.0605 -0.0605 -0.0605 -0.0605 -0.0605 -0.0605 -0.0605 -0.0605
 -0.0592 -0.0592 -0.0592 -0.0592 -0.0592 -0.0592 -0.0592 -0.0592
 -0.0592 -0.0592 -0.0592 -0.0592 -0.0592 -0.0592 -0.0592 -0.0592
 -0.0592 -0.0592 -0.0592 -0.0592 -0.0592 -0.0592 -0.0592 -0.0592
 -0.0592 -0.0592 -0.0592 -0.0592 -0.0592 -0.0592 -0.0592 -0.0592
 -0.0580 -0.0580 -0.0580 -0.0580 -0.0580 -0.0580 -0.0580 -0.0580
 -0.0580 -0.0580 -0.0580 -0.0580 -0.0580 -0.0580 -0.0580 -0.0580
 -0.0580 -0.0580 -0.0580 -0.0580 -0.0580 -0.0580 -0.0580 -0.0580
 -0.0580 -0.0580 -0.0580 -0.0580 -0.0580 -0.0580 -0.0580 -0.0580
 -0.0567 -0.0567 -0.0567 -0.0567 -0.0567 -0.0567 -0.0567 -0.0567
 -0.0567 -0.0567 -0.0567 -0.0567 -0.0567 -0.0567 -0.0567 -0.0567
 -0.0567 -0.0567 -0.0567 -0.0567 -0.0567 -0.0567 -0.0567 -0.0567
 -0.0567 -0.0567 -0.0567 -0.0567 -0.0567 -0.0567 -0.0567 -0.0567
 -0.0555 -0.0555 -0.0555 -0.0555 -0.0555 -0.0555 -0.0555 -0.0555
 -0.0555 -0.0555 -0.0555 -0.0555 -0.0555 -0.0555 -0.0555 -0.0555
 -0.0555 -0.0555 -0.0555 -0.0555 -0.0555 -0.0555 -0.0555 -0.0555
 -0.0555 -0.0555 -0.0555 -0.0555 -0.0555 -0.0555 -0.0555 -0.0555
 -0.0542 -0.0542 -0.0542 -0.0542 -0.0542 -0.0542 -0.0542 -0.0542
 -0.0542 -0.0542 -0.0542 -0.0542 -0.0542 -0.0542 -0.0542 -0.0542
 -0.0542 -0.0542 -0.0542 -0.0542 -0.0542 -0.0542 -0.0542 -0.0542
 -0.0542 -0.0542 -0.0542 -0.0542 -0.0542 -0.0542 -0.0542 -0.0542
 -0.0530 -0.0530 -0.0530 -0.0530 -0.0530 -0.0530 -0.0530 -0.0530
 -0.0530 -0.0530 -0.0530 -0.0530 -0.0530 -0.0530 -0.0530 -0.0530
 -0.0530 -0.0530 -0.0530 -0.0530 -0.0530 -0.0530 -0.0530 -0.0530
 -0.0530 -0.0530 -0.0530 -0.0530 -0.0530 -0.0530 -0.0530 -0.0530
 -0.0517 -0.0517 -0.0517 -0.0517 -0.0517 -0.0517 -0.0517 -0.0517
 -0.0517 -0.0517 -0.0517 -0.0517 -0.0517 -0.0517 -0.0517 -0.0517
 -0.0517 -0.0517 -0.0517 -0.0517 -0.0517 -0.0517 -0.0517 -0.0517
 -0.0517 -0.0517 -0.0517 -0.0517 -0.0517 -0.0517 -0.0517 -0.0517
 -0.0505 -0.0505 -0.0505 -0.0505 -0.0505 -0.0505 -0.0505 -0.0505
 -0.0505 -0.0505 -0.0505 -0.0505 -0.0505 -0.0505 -0.0505 -0.0505
 -0.0605 -0.0605 -0.0605 -0.0605 -0.0605 -0.0605 -0.0605 -0.0605
 -0.0605 -0.0605 -0.0605 -0.0605 -0.0605 -0.0605 -0.0605 -0.0605
 -0.0592 -0.0592 -0.0592 -0.0592 -0.0592 -0.0592 -0.0592 -0.0592
 -0.0592 -0.0592 -0.0592 -0.0592 -0.0592 -0.0592 -0.0592 -0.0592
 -0.0592 -0.0592 -0.0592 -0.0592 -0.0592 -0.0592 -0.0592 -0.0592
 -0.0592 -0.0592 -0.0592 -0.0592 -0.0592 -0.0592 -0.0592 -0.0592
 -0.0580 -0.0580 -0.0580 -0.0580 -0.0580 -0.0580 -0.0580 -0.0580
 -0.0580 -0.0580 -0.0580 -0.0580 -0.0580 -0.0580 -0.0580 -0.0580
 -0.0580 -0.0580 -0.0580 -0.0580 -0.0580 -0.0580 -0.0580 -0.0580
 -0.0580 -0.0580 -0.0580 -0.0580 -0.0580 -0.0580 -0.0580 -0.0580
 -0.0567 -0.0567 -0.0567 -0.0567 -0.0567 -0.0567 -0.0567 -0.0567
 -0.0567 -0.0567 -0.0567 -0.0567 -0.0567 -0.0567 -0.0567 -0.0567
 -0.0567 -0.0567 -0.0567 -0.0567 -0.0567 -0.0567 -0.0567 -0.0567
 -0.0567 -0.0567 -0.0567 -0.0567 -0.0567 -0.0567 -0.0567 -0.0567
 -0.0555 -0.0555 -0.0555 -0.0555 -0.0555 -0.0555 -0.0555 -0.0555
 -0.0555 -0.0555 -0.0555 -0.0555 -0.0555 -0.0555 -0.0555 -0.0555
 -0.0555 -0.0555 -0.0555 -0.0555 -0.0555 -0.0555 -0.0555 -0.0555
 -0.0555 -0.0555 -0.0555 -0.0555 -0.0555 -0.0555 -0.0555 -0.0555
 -0.0542 -0.0542 -0.0542 -0.0542 -0.0542 -0.0542 -0.0542 -0.0542
 -0.0542 -0.0542 -0.0542 -0.0542 -0.0542 -0.0542 -0.0542 -0.0542
 -0.0542 -0.0542 -0.0542 -0.0542 -0.0542 -0.0542 -0.0542 -0.0542
 -0.0542 -0.0542 -0.0542 -0.0542 -0.0542 -0.0542 -0.0542 -0.0542
 -0.0530 -0.0530 -0.0530 -0.0530 -0.0530 -0.0530 -0.0530 -0.0530
 -0.0530 -0.0530 -0.0530 -0.0530 -0.0530 -0.0530 -0.0530 -0.0530
 -0.0530 -0.0530 -0.0530 -0.0530 -0.0530 -0.0530 -0.0530 -0.0530
 -0.0530 -0.0530 -0.0530 -0.0530 -0.0530 -0.0530 -0.0530 -0.0530
 -0.0517 -0.0517 -0.0517 -0.0517 -0.0517 -0.0517 -0.0517 -0.0517
 -0.0517 -0.0517 -0.0517 -0.0517 -0.0517 -0.0517 -0.0517 -0.0517
 -0.0517 -0.0517 -0.0517 -0.0517 -0.0517 -0.0517 -0.0517 -0.0517
 -0.0517 -0.0517 -0.0517 -0.0517 -0.0517 -0.0517 -0.0517 -0.0517
 -0.0505 -0.0505 -0.0505 -0.0505 -0.0505 -0.0505 -0.0505 -0.0505
 -0.0505 -0.0505 -0.0505 -0.0505 -0.0505 -0.0505 -0.0505 -0.0505
 -0.0504 -0.0504 -0.0504 -0.0504 -0.0504 -0.0504 -0.0504 -0.0504
 -0.0504 -0.0504 -0.0504 -0.0504 -0.0504 -0.0504 -0.0504 -0.0504
 -0.0491 -0.0491 -0.0491 -0.0491 -0.0491 -0.0491 -0.0491 -0.0491
 -0.0491 -0.0491 -0.0491 -0.0491 -0.0491 -0.0491 -0.0491 -0.0491
 -0.0491 -0.0491 -0.0491 -0.0491 -0.0491 -0.0491 -0.0491 -0.0491
 -0.0491 -0.0491 -0.0491 -0.0491 -0.0491 -0.0491 -0.0491 -0.0491
 -0.0479 -0.0479 -0.0479 -0.0479 -0.0479 -0.0479 -0.0479 -0.0479
 -0.0479 -0.0479 -0.0479 -0.0479 -0.0479 -0.0479 -0.0479 -0.0479
 -0.0479 -0.0479 -0.0479 -0.0479 -0.0479 -0.0479 -0.0479 -0.0479
 -0.0479 -0.0479 -0.0479 -0.0479 -0.0479 -0.0479 -0.0479 -0.0479
 -0.0466 -0.0466 -0.0466 -0.0466 -0.0466 -0.0466 -0.0466 -0.0466
 -0.0466 -0.0466 -0.0466 -0.0466 -0.0466 -0.0466 -0.0466 -0.0466
 -0.0466 -0.0466 -0.0466 -0.0466 -0.0466 -0.0466 -0.0466 -0.0466
 -0.0466 -0.0466 -0.0466 -0.0466 -0.0466 -0.0466 -0.0466 -0.0466
 -0.0454 -0.0454 -0.0454 -0.0454 -0.0454 -0.0454 -0.0454 -0.0454
 -0.0454 -0.0454 -0.0454 -0.0454 -0.0454 -0.0454 -0.0454 -0.0454
 -0.0454 -0.0454 -0.0454 -0.0454 -0.0454 -0.0454 -0.0454 -0.0454
 -0.0454 -0.0454 -0.0454 -0.0454 -0.0454 -0.0454 -0.0454 -0.0454
 -0.0441 -0.0441 -0.0441 -0.0441 -0.0441 -0.0441 -0.0441 -0.0441
 -0.0441 -0.0441 -0.0441 -0.0441 -0.0441 -0.0441 -0.0441 -0.0441
 -0.0441 -0.0441 -0.0441 -0.0441 -0.0441 -0.0441 -0.0441 -0.0441
 -0.0441 -0.0441 -0.0441 -0.0441 -0.0441 -0.0441 -0.0441 -0.0441
 -0.0429 -0.0429 -0.0429 -0.0429 -0.0429 -0.0429 -0.0429 -0.0429
 -0.0429 -0.0429 -0.0429 -0.0429 -0.0429 -0.0429 -0.0429 -0.0429
 -0.0429 -0.0429 -0.0429 -0.0429 -0.0429 -0.0429 -0.0429 -0.0429
 -0.0429 -0.0429 -0.0429 -0.0429 -0.0429 -0.0429 -0.0429 -0.0429
 -0.0416 -0.0416 -0.0416 -0.0416 -0.0416 -0.0416 -0.0416 -0.0416
 -0.0416 -0.0416 -0.0416 -0.0416 -0.0416 -0.0416 -0.0416 -0.0416
 -0.0416 -0.0416 -0.0416 -0.0416 -0.0416 -0.0416 -0.0416 -0.0416
 -0.0416 -0.0416 -0.0416 -0.0416 -0.0416 -0.0416 -0.0416 -0.0416
 -0.0404 -0.0404 -0.0404 -0.0404 -0.0404 -0.0404 -0.0404 -0.0404
 -0.0404 -0.0404 -0.0404 -0.0404 -0.0404 -0.0404 -0.0404 -0.0404
 -0.0504 -0.0504 -0.0504 -0.0504 -0.0504 -0.0504 -0.0504 -0.0504
 -0.0504 -0.0504 -0.0504 -0.0504 -0.0504 -0.0504 -0.0504 -0.0504
 -0.0491 -0.0491 -0.0491 -0.0491 -0.0491 -0.0491 -0.0491 -0.0491
 -0.0491 -0.0491 -0.0491 -0.0491 -0.0491 -0.0491 -0.0491 -0.0491
 -0.0491 -0.0491 -0.0491 -0.0491 -0.0491 -0.0491 -0.0491 -0.0491
 -0.0491 -0.0491 -0.0491 -0.0491 -0.0491 -0.0491 -0.0491 -0.0491
 -0.0479 -0.0479 -0.0479 -0.0479 -0.0479 -0.0479 -0.0479 -0.0479
 -0.0479 -0.0479 -0.0479 -0.0479 -0.0479 -0.0479 -0.0479 -0.0479
 -0.0479 -0.0479 -0.0479 -0.0479 -0.0479 -0.0479 -0.0479 -0.0479
 -0.0479 -0.0479 -0.0479 -0.0479 -0.0479 -0.0479 -0.0479 -0.0479
 -0.0466 -0.0466 -0.0466 -0.0466 -0.0466 -0.0466 -0.0466 -0.0466
 -0.0466 -0.0466 -0.0466 -0.0466 -0.0466 -0.0466 -0.0466 -0.0466
 -0.0466 -0.0466 -0.0466 -0.0466 -0.0466 -0.0466 -0.0466 -0.0466
 -0.0466 -0.0466 -0.0466 -0.0466 -0.0466 -0.0466 -0.0466 -0.0466
 -0.0454 -0.0454 -0.0454 -0.0454 -0.0454 -0.0454 -0.0454 -0.0454
 -0.0454 -0.0454 -0.0454 -0.0454 -0.0454 -0.0454 -0.0454 -0.0454
 -0.0454 -0.0454 -0.0454 -0.0454 -0.0454 -0.0454 -0.0454 -0.0454
 -0.0454 -0.0454 -0.0454 -0.0454 -0.0454 -0.0454 -0.0454 -0.0454
 -0.0441 -0.0441 -0.0441 -0.0441 -0.0441 -0.0441 -0.0441 -0.0441
 -0.0441 -0.0441 -0.0441 -0.0441 -0.0441 -0.0441 -0.0441 -0.0441
 -0.0441 -0.0441 -0.0441 -0.0441 -0.0441 -0.0441 -0.0441 -0.0441
 -0.0441 -0.0441 -0.0441 -0.0441 -0.0441 -0.0441 -0.0441 -0.0441
 -0.0429 -0.0429 -0.0429 -0.0429 -0.0429 -0.0429 -0.0429 -0.0429
 -0.0429 -0.0429 -0.0429 -0.0429 -0.0429 -0.0429 -0.0429 -0.0429
 -0.0429 -0.0429 -0.0429 -0.0429 -0.0429 -0.0429 -0.0429 -0.0429
 -0.0429 -0.0429 -0.0429 -0.0429 -0.0429 -0.0429 -0.0429 -0.0429
 -0.0416 -0.0416 -0.0416 -0.0416 -0.0416 -0.0416 -0.0416 -0.0416
 -0.0416 -0.0416 -0.0416 -0.0416 -0.0416 -0.0416 -0.0416 -0.0416
 -0.0416 -0.0416 -0.0416 -0.0416 -0.0416 -0.0416 -0.0416 -0.0416
 -0.0416 -0.0416 -0.0416 -0.0416 -0.0416 -0.0416 -0.0416 -0.0416
 -0.0404 -0.0404 -0.0404 -0.0404 -0.0404 -0.0404 -0.0404 -0.0404
 -0.0404 -0.0404 -0.0404 -0.0404 -0.0404 -0.0404 -0.0404 -0.0404
 -0.0403 -0.0403 -0.0403 -0.0403 -0.0403 -0.0403 -0.0403 -0.0403
 -0.0403 -0.0403 -0.0403 -0.0403 -0.0403 -0.0403 -0.0403 -0.0403
 -0.0391 -0.0391 -0.0391 -0.0391 -0.0391 -0.0391 -0.0391 -0.0391
 -0.0391 -0.0391 -0.0391 -0.0391 -0.0391 -0.0391 -0.0391 -0.0391
 -0.0391 -0.0391 -0.0391 -0.0391 -0.0391 -0.0391 -0.0391 -0.0391
 -0.0391 -0.0391 -0.0391 -0.0391 -0.0391 -0.0391 -0.0391 -0.0391
 -0.0378 -0.0378 -0.0378 -0.0378 -0.0378 -0.0378 -0.0378 -0.0378
 -0.0378 -0.0378 -0.0378 -0.0378 -0.0378 -0.0378 -0.0378 -0.0378
 -0.0378 -0.0378 -0.0378 -0.0378 -0.0378 -0.0378 -0.0378 -0.0378
 -0.0378 -0.0378 -0.0378 -0.0378 -0.0378 -0.0378 -0.0378 -0.0378
 -0.0366 -0.0366 -0.0366 -0.0366 -0.0366 -0.0366 -0.0366 -0.0366
 -0.0366 -0.0366 -0.0366 -0.0366 -0.0366 -0.0366 -0.0366 -0.0366
 -0.0366 -0.0366 -0.0366 -0.0366 -0.0366 -0.0366 -0.0366 -0.0366
 -0.0366 -0.0366 -0.0366 -0.0366 -0.0366 -0.0366 -0.0366 -0.0366
 -0.0353 -0.0353 -0.0353 -0.0353 -0.0353 -0.0353 -0.0353 -0.0353
 -0.0353 -0.0353 -0.0353 -0.0353 -0.0353 -0.0353 -0.0353 -0.0353
 -0.0353 -0.0353 -0.0353 -0.0353 -0.0353 -0.0353 -0.0353 -0.0353
 -0.0353 -0.0353 -0.0353 -0.0353 -0.0353 -0.0353 -0.0353 -0.0353
 -0.0341 -0.0341 -0.0341 -0.0341 -0.0341 -0.0341 -0.0341 -0.0341
 -0.0341 -0.0341 -0.0341 -0.0341 -0.0341 -0.0341 -0.0341 -0.0341
 -0.0341 -0.0341 -0.0341 -0.0341 -0.0341 -0.0341 -0.0341 -0.0341
 -0.0341 -0.0341 -0.0341 -0.0341 -0.0341 -0.0341 -0.0341 -0.0341
 -0.0328 -0.0328 -0.0328 -0.0328 -0.0328 -0.0328 -0.0328 -0.0328
 -0.0328 -0.0328 -0.0328 -0.0328 -0.0328 -0.0328 -0.0328 -0.0328
 -0.0328 -0.0328 -0.0328 -0.0328 -0.0328 -0.0328 -0.0328 -0.0328
 -0.0328 -0.0328 -0.0328 -0.0328 -0.0328 -0.0328 -0.0328 -0.0328
 -0.0316 -0.0316 -0.0316 -0.0316 -0.0316 -0.0316 -0.0316 -0.0316
 -0.0316 -0.0316 -0.0316 -0.0316 -0.0316 -0.0316 -0.0316 -0.0316
 -0.0316 -0.0316 -0.0316 -0.0316 -0.0316 -0.0316 -0.0316 -0.0316
 -0.0316 -0.0316 -0.0316 -0.0316 -0.0316 -0.0316 -0.0316 -0.0316
 -0.0303 -0.0303 -0.0303 -0.0303 -0.0303 -0.0303 -0.0303 -0.0303
 -0.0303 -0.0303 -0.0303 -0.0303 -0.0303 -0.0303 -0.0303 -0.0303
 -0.0403 -0.0403 -0.0403 -0.0403 -0.0403 -0.0403 -0.0403 -0.0403
 -0.0403 -0.0403 -0.0403 -0.0403 -0.0403 -0.0403 -0.0403 -0.0403
 -0.0391 -0.0391 -0.0391 -0.0391 -0.0391 -0.0391 -0.0391 -0.0391
 -0.0391 -0.0391 -0.0391 -0.0391 -0.0391 -0.0391 -0.0391 -0.0391
 -0.0391 -0.0391 -0.0391 -0.0391 -0.0391 -0.0391 -0.0391 -0.0391
 -0.0391 -0.0391 -0.0391 -0.0391 -0.0391 -0.0391 -0.0391 -0.0391
 -0.0378 -0.0378 -0.0378 -0.0378 -0.0378 -0.0378 -0.0378 -0.0378
 -0.0378 -0.0378 -0.0378 -0.0378 -0.0378 -0.0378 -0.0378 -0.0378
 -0.0378 -0.0378 -0.0378 -0.0378 -0.0378 -0.0378 -0.0378 -0.0378
 -0.0378 -0.0378 -0.0378 -0.0378 -0.0378 -0.0378 -0.0378 -0.0378
 -0.0366 -0.0366 -0.0366 -0.0366 -0.0366 -0.0366 -0.0366 -0.0366
 -0.0366 -0.0366 -0.0366 -0.0366 -0.0366 -0.0366 -0.0366 -0.0366
 -0.0366 -0.0366 -0.0366 -0.0366 -0.0366 -0.0366 -0.0366 -0.0366