--ECLIPSE grid exported from SBED, a product from Geomodeling Technology Corp
-- Example SBED grid made for debugging upscaling software
-- The grid is layered and tilted, and made periodic, this is a very
-- coarse version suitable for debugging.
-- Length Unit = cm --
-- Poro Unit = Fraction --
-- Perm Unit = mD --
-- ROCKTYPE Comment --
    -- 1 = PBED_SAND1 --
    -- 2 = PBED_SAND2 --

SPECGRID
8 8 17 1 F /

COORD
   0.000    0.000    0.000    0.000    0.000   40.000
  10.000    0.000    0.000   10.000    0.000   40.000
  20.000    0.000    0.000   20.000    0.000   40.000
  30.000    0.000    0.000   30.000    0.000   40.000
  40.000    0.000    0.000   40.000    0.000   40.000
  50.000    0.000    0.000   50.000    0.000   40.000
  60.000    0.000    0.000   60.000    0.000   40.000
  70.000    0.000    0.000   70.000    0.000   40.000
  80.000    0.000    0.000   80.000    0.000   40.000
   0.000   10.000    0.000    0.000   10.000   40.000
  10.000   10.000    0.000   10.000   10.000   40.000
  20.000   10.000    0.000   20.000   10.000   40.000
  30.000   10.000    0.000   30.000   10.000   40.000
  40.000   10.000    0.000   40.000   10.000   40.000
  50.000   10.000    0.000   50.000   10.000   40.000
  60.000   10.000    0.000   60.000   10.000   40.000
  70.000   10.000    0.000   70.000   10.000   40.000
  80.000   10.000    0.000   80.000   10.000   40.000
   0.000   20.000    0.000    0.000   20.000   40.000
  10.000   20.000    0.000   10.000   20.000   40.000
  20.000   20.000    0.000   20.000   20.000   40.000
  30.000   20.000    0.000   30.000   20.000   40.000
  40.000   20.000    0.000   40.000   20.000   40.000
  50.000   20.000    0.000   50.000   20.000   40.000
  60.000   20.000    0.000   60.000   20.000   40.000
  70.000   20.000    0.000   70.000   20.000   40.000
  80.000   20.000    0.000   80.000   20.000   40.000
   0.000   30.000    0.000    0.000   30.000   40.000
  10.000   30.000    0.000   10.000   30.000   40.000
  20.000   30.000    0.000   20.000   30.000   40.000
  30.000   30.000    0.000   30.000   30.000   40.000
  40.000   30.000    0.000   40.000   30.000   40.000
  50.000   30.000    0.000   50.000   30.000   40.000
  60.000   30.000    0.000   60.000   30.000   40.000
  70.000   30.000    0.000   70.000   30.000   40.000
  80.000   30.000    0.000   80.000   30.000   40.000
   0.000   40.000    0.000    0.000   40.000   40.000
  10.000   40.000    0.000   10.000   40.000   40.000
  20.000   40.000    0.000   20.000   40.000   40.000
  30.000   40.000    0.000   30.000   40.000   40.000
  40.000   40.000    0.000   40.000   40.000   40.000
  50.000   40.000    0.000   50.000   40.000   40.000
  60.000   40.000    0.000   60.000   40.000   40.000
  70.000   40.000    0.000   70.000   40.000   40.000
  80.000   40.000    0.000   80.000   40.000   40.000
   0.000   50.000    0.000    0.000   50.000   40.000
  10.000   50.000    0.000   10.000   50.000   40.000
  20.000   50.000    0.000   20.000   50.000   40.000
  30.000   50.000    0.000   30.000   50.000   40.000
  40.000   50.000    0.000   40.000   50.000   40.000
  50.000   50.000    0.000   50.000   50.000   40.000
  60.000   50.000    0.000   60.000   50.000   40.000
  70.000   50.000    0.000   70.000   50.000   40.000
  80.000   50.000    0.000   80.000   50.000   40.000
   0.000   60.000    0.000    0.000   60.000   40.000
  10.000   60.000    0.000   10.000   60.000   40.000
  20.000   60.000    0.000   20.000   60.000   40.000
  30.000   60.000    0.000   30.000   60.000   40.000
  40.000   60.000    0.000   40.000   60.000   40.000
  50.000   60.000    0.000   50.000   60.000   40.000
  60.000   60.000    0.000   60.000   60.000   40.000
  70.000   60.000    0.000   70.000   60.000   40.000
  80.000   60.000    0.000   80.000   60.000   40.000
   0.000   70.000    0.000    0.000   70.000   40.000
  10.000   70.000    0.000   10.000   70.000   40.000
  20.000   70.000    0.000   20.000   70.000   40.000
  30.000   70.000    0.000   30.000   70.000   40.000
  40.000   70.000    0.000   40.000   70.000   40.000
  50.000   70.000    0.000   50.000   70.000   40.000
  60.000   70.000    0.000   60.000   70.000   40.000
  70.000   70.000    0.000   70.000   70.000   40.000
  80.000   70.000    0.000   80.000   70.000   40.000
   0.000   80.000    0.000    0.000   80.000   40.000
  10.000   80.000    0.000   10.000   80.000   40.000
  20.000   80.000    0.000   20.000   80.000   40.000
  30.000   80.000    0.000   30.000   80.000   40.000
  40.000   80.000    0.000   40.000   80.000   40.000
  50.000   80.000    0.000   50.000   80.000   40.000
  60.000   80.000    0.000   60.000   80.000   40.000
  70.000   80.000    0.000   70.000   80.000   40.000
  80.000   80.000    0.000   80.000   80.000   40.000
/

ZCORN
    0.000    0.000    0.000    0.000    0.000    0.000    0.000    0.000
    0.000    0.000    0.000    0.000    0.000    0.000    0.000    0.000
    0.000    0.000    0.000    0.000    0.000    0.000    0.000    0.000
    0.000    0.000    0.000    0.000    0.000    0.000    0.000    0.000
    0.000    0.000    0.000    0.000    0.000    0.000    0.000    0.000
    0.000    0.000    0.000    0.000    0.000    0.000    0.000    0.000
    0.000    0.000    0.000    0.000    0.000    0.000    0.000    0.000
    0.000    0.000    0.000    0.000    0.000    0.000    0.000    0.000
    0.000    0.000    0.000    0.000    0.000    0.000    0.000    0.000
    0.000    0.000    0.000    0.000    0.000    0.000    0.000    0.000
    0.000    0.000    0.000    0.000    0.000    0.000    0.000    0.000
    0.000    0.000    0.000    0.000    0.000    0.000    0.000    0.000
    0.000    0.000    0.000    0.000    0.000    0.000    0.000    0.000
    0.000    0.000    0.000    0.000    0.000    0.000    0.000    0.000
    0.000    0.000    0.000    0.000    0.000    0.000    0.000    0.000
    0.000    0.000    0.000    0.000    0.000    0.000    0.000    0.000
    0.000    0.000    0.000    0.000    0.000    0.000    0.000    0.000
    0.000    0.000    0.000    0.000    0.000    0.000    0.000    0.000
    0.000    0.000    0.000    0.000    0.000    0.000    0.000    0.000
    0.000    0.000    0.000    0.000    0.000    0.000    0.000    0.000
    0.000    0.000    0.000    0.000    0.000    0.000    0.000    0.000
    0.000    0.000    0.000    0.000    0.000    0.000    0.000    0.000
    0.000    0.000    0.000    0.000    0.000    0.000    0.000    0.000
    0.000    0.000    0.000    0.000    0.000    0.000    0.000    0.000
    0.000    0.000    0.000    0.000    0.000    0.000    0.000    0.000
    0.000    0.000    0.000    0.000    0.000    0.000    0.000    0.000
    0.000    0.000    0.000    0.000    0.000    0.000    0.000    0.000
    0.000    0.000    0.000    0.000    0.000    0.000    0.000    0.000
    0.000    0.000    0.000    0.000    0.000    0.000    0.000    0.000
    0.000    0.000    0.000    0.000    0.000    0.000    0.000    0.000
    0.000    0.000    0.000    0.000    0.000    0.000    0.000    0.000
    0.000    0.000    0.000    0.000    0.000    0.000    0.000    0.000
    0.002    0.000    0.000    0.000    0.000    0.000    0.000    0.000
    0.000    0.000    0.000    0.000    0.000    0.000    0.000    0.000
    0.002    0.000    0.000    0.000    0.000    0.000    0.000    0.000
    0.000    0.000    0.000    0.000    0.000    0.000    0.000    0.000
    0.002    0.000    0.000    0.000    0.000    0.000    0.000    0.000
    0.000    0.000    0.000    0.000    0.000    0.000    0.000    0.000
    0.002    0.000    0.000    0.000    0.000    0.000    0.000    0.000
    0.000    0.000    0.000    0.000    0.000    0.000    0.000    0.000
    0.002    0.000    0.000    0.000    0.000    0.000    0.000    0.000
    0.000    0.000    0.000    0.000    0.000    0.000    0.000    0.000
    0.002    0.000    0.000    0.000    0.000    0.000    0.000    0.000
    0.000    0.000    0.000    0.000    0.000    0.000    0.000    0.000
    0.002    0.000    0.000    0.000    0.000    0.000    0.000    0.000
    0.000    0.000    0.000    0.000    0.000    0.000    0.000    0.000
    0.002    0.000    0.000    0.000    0.000    0.000    0.000    0.000
    0.000    0.000    0.000    0.000    0.000    0.000    0.000    0.000
    0.002    0.000    0.000    0.000    0.000    0.000    0.000    0.000
    0.000    0.000    0.000    0.000    0.000    0.000    0.000    0.000
    0.002    0.000    0.000    0.000    0.000    0.000    0.000    0.000
    0.000    0.000    0.000    0.000    0.000    0.000    0.000    0.000
    0.002    0.000    0.000    0.000    0.000    0.000    0.000    0.000
    0.000    0.000    0.000    0.000    0.000    0.000    0.000    0.000
    0.002    0.000    0.000    0.000    0.000    0.000    0.000    0.000
    0.000    0.000    0.000    0.000    0.000    0.000    0.000    0.000
    0.002    0.000    0.000    0.000    0.000    0.000    0.000    0.000
    0.000    0.000    0.000    0.000    0.000    0.000    0.000    0.000
    0.002    0.000    0.000    0.000    0.000    0.000    0.000    0.000
    0.000    0.000    0.000    0.000    0.000    0.000    0.000    0.000
    0.002    0.000    0.000    0.000    0.000    0.000    0.000    0.000
    0.000    0.000    0.000    0.000    0.000    0.000    0.000    0.000
    0.002    0.000    0.000    0.000    0.000    0.000    0.000    0.000
    0.000    0.000    0.000    0.000    0.000    0.000    0.000    0.000
    0.002    0.000    0.000    0.000    0.000    0.000    0.000    0.000
    0.000    0.000    0.000    0.000    0.000    0.000    0.000    0.000
    0.002    0.000    0.000    0.000    0.000    0.000    0.000    0.000
    0.000    0.000    0.000    0.000    0.000    0.000    0.000    0.000
    0.002    0.000    0.000    0.000    0.000    0.000    0.000    0.000
    0.000    0.000    0.000    0.000    0.000    0.000    0.000    0.000
    0.002    0.000    0.000    0.000    0.000    0.000    0.000    0.000
    0.000    0.000    0.000    0.000    0.000    0.000    0.000    0.000
    0.002    0.000    0.000    0.000    0.000    0.000    0.000    0.000
    0.000    0.000    0.000    0.000    0.000    0.000    0.000    0.000
    0.002    0.000    0.000    0.000    0.000    0.000    0.000    0.000
    0.000    0.000    0.000    0.000    0.000    0.000    0.000    0.000
    0.002    0.000    0.000    0.000    0.000    0.000    0.000    0.000
    0.000    0.000    0.000    0.000    0.000    0.000    0.000    0.000
    0.002    0.000    0.000    0.000    0.000    0.000    0.000    0.000
    0.000    0.000    0.000    0.000    0.000    0.000    0.000    0.000
    0.002    0.000    0.000    0.000    0.000    0.000    0.000    0.000
    0.000    0.000    0.000    0.000    0.000    0.000    0.000    0.000
    0.002    0.000    0.000    0.000    0.000    0.000    0.000    0.000
    0.000    0.000    0.000    0.000    0.000    0.000    0.000    0.000
    0.002    0.000    0.000    0.000    0.000    0.000    0.000    0.000
    0.000    0.000    0.000    0.000    0.000    0.000    0.000    0.000
    0.002    0.000    0.000    0.000    0.000    0.000    0.000    0.000
    0.000    0.000    0.000    0.000    0.000    0.000    0.000    0.000
    0.002    0.000    0.000    0.000    0.000    0.000    0.000    0.000
    0.000    0.000    0.000    0.000    0.000    0.000    0.000    0.000
    0.002    0.000    0.000    0.000    0.000    0.000    0.000    0.000
    0.000    0.000    0.000    0.000    0.000    0.000    0.000    0.000
    0.002    0.000    0.000    0.000    0.000    0.000    0.000    0.000
    0.000    0.000    0.000    0.000    0.000    0.000    0.000    0.000
    0.002    0.000    0.000    0.000    0.000    0.000    0.000    0.000
    0.000    0.000    0.000    0.000    0.000    0.000    0.000    0.000
    5.002    0.002    0.002    0.000    0.000    0.000    0.000    0.000
    0.000    0.000    0.000    0.000    0.000    0.000    0.000    0.000
    5.002    0.002    0.002    0.000    0.000    0.000    0.000    0.000
    0.000    0.000    0.000    0.000    0.000    0.000    0.000    0.000
    5.002    0.002    0.002    0.000    0.000    0.000    0.000    0.000
    0.000    0.000    0.000    0.000    0.000    0.000    0.000    0.000
    5.002    0.002    0.002    0.000    0.000    0.000    0.000    0.000
    0.000    0.000    0.000    0.000    0.000    0.000    0.000    0.000
    5.002    0.002    0.002    0.000    0.000    0.000    0.000    0.000
    0.000    0.000    0.000    0.000    0.000    0.000    0.000    0.000
    5.002    0.002    0.002    0.000    0.000    0.000    0.000    0.000
    0.000    0.000    0.000    0.000    0.000    0.000    0.000    0.000
    5.002    0.002    0.002    0.000    0.000    0.000    0.000    0.000
    0.000    0.000    0.000    0.000    0.000    0.000    0.000    0.000
    5.002    0.002    0.002    0.000    0.000    0.000    0.000    0.000
    0.000    0.000    0.000    0.000    0.000    0.000    0.000    0.000
    5.002    0.002    0.002    0.000    0.000    0.000    0.000    0.000
    0.000    0.000    0.000    0.000    0.000    0.000    0.000    0.000
    5.002    0.002    0.002    0.000    0.000    0.000    0.000    0.000
    0.000    0.000    0.000    0.000    0.000    0.000    0.000    0.000
    5.002    0.002    0.002    0.000    0.000    0.000    0.000    0.000
    0.000    0.000    0.000    0.000    0.000    0.000    0.000    0.000
    5.002    0.002    0.002    0.000    0.000    0.000    0.000    0.000
    0.000    0.000    0.000    0.000    0.000    0.000    0.000    0.000
    5.002    0.002    0.002    0.000    0.000    0.000    0.000    0.000
    0.000    0.000    0.000    0.000    0.000    0.000    0.000    0.000
    5.002    0.002    0.002    0.000    0.000    0.000    0.000    0.000
    0.000    0.000    0.000    0.000    0.000    0.000    0.000    0.000
    5.002    0.002    0.002    0.000    0.000    0.000    0.000    0.000
    0.000    0.000    0.000    0.000    0.000    0.000    0.000    0.000
    5.002    0.002    0.002    0.000    0.000    0.000    0.000    0.000
    0.000    0.000    0.000    0.000    0.000    0.000    0.000    0.000
    5.002    0.002    0.002    0.000    0.000    0.000    0.000    0.000
    0.000    0.000    0.000    0.000    0.000    0.000    0.000    0.000
    5.002    0.002    0.002    0.000    0.000    0.000    0.000    0.000
    0.000    0.000    0.000    0.000    0.000    0.000    0.000    0.000
    5.002    0.002    0.002    0.000    0.000    0.000    0.000    0.000
    0.000    0.000    0.000    0.000    0.000    0.000    0.000    0.000
    5.002    0.002    0.002    0.000    0.000    0.000    0.000    0.000
    0.000    0.000    0.000    0.000    0.000    0.000    0.000    0.000
    5.002    0.002    0.002    0.000    0.000    0.000    0.000    0.000
    0.000    0.000    0.000    0.000    0.000    0.000    0.000    0.000
    5.002    0.002    0.002    0.000    0.000    0.000    0.000    0.000
    0.000    0.000    0.000    0.000    0.000    0.000    0.000    0.000
    5.002    0.002    0.002    0.000    0.000    0.000    0.000    0.000
    0.000    0.000    0.000    0.000    0.000    0.000    0.000    0.000
    5.002    0.002    0.002    0.000    0.000    0.000    0.000    0.000
    0.000    0.000    0.000    0.000    0.000    0.000    0.000    0.000
    5.002    0.002    0.002    0.000    0.000    0.000    0.000    0.000
    0.000    0.000    0.000    0.000    0.000    0.000    0.000    0.000
    5.002    0.002    0.002    0.000    0.000    0.000    0.000    0.000
    0.000    0.000    0.000    0.000    0.000    0.000    0.000    0.000
    5.002    0.002    0.002    0.000    0.000    0.000    0.000    0.000
    0.000    0.000    0.000    0.000    0.000    0.000    0.000    0.000
    5.002    0.002    0.002    0.000    0.000    0.000    0.000    0.000
    0.000    0.000    0.000    0.000    0.000    0.000    0.000    0.000
    5.002    0.002    0.002    0.000    0.000    0.000    0.000    0.000
    0.000    0.000    0.000    0.000    0.000    0.000    0.000    0.000
    5.002    0.002    0.002    0.000    0.000    0.000    0.000    0.000
    0.000    0.000    0.000    0.000    0.000    0.000    0.000    0.000
    5.002    0.002    0.002    0.000    0.000    0.000    0.000    0.000
    0.000    0.000    0.000    0.000    0.000    0.000    0.000    0.000
    5.002    0.002    0.002    0.000    0.000    0.000    0.000    0.000
    0.000    0.000    0.000    0.000    0.000    0.000    0.000    0.000
   10.002    5.002    5.002    0.002    0.002    0.000    0.000    0.000
    0.000    0.000    0.000    0.000    0.000    0.000    0.000    0.000
   10.002    5.002    5.002    0.002    0.002    0.000    0.000    0.000
    0.000    0.000    0.000    0.000    0.000    0.000    0.000    0.000
   10.002    5.002    5.002    0.002    0.002    0.000    0.000    0.000
    0.000    0.000    0.000    0.000    0.000    0.000    0.000    0.000
   10.002    5.002    5.002    0.002    0.002    0.000    0.000    0.000
    0.000    0.000    0.000    0.000    0.000    0.000    0.000    0.000
   10.002    5.002    5.002    0.002    0.002    0.000    0.000    0.000
    0.000    0.000    0.000    0.000    0.000    0.000    0.000    0.000
   10.002    5.002    5.002    0.002    0.002    0.000    0.000    0.000
    0.000    0.000    0.000    0.000    0.000    0.000    0.000    0.000
   10.002    5.002    5.002    0.002    0.002    0.000    0.000    0.000
    0.000    0.000    0.000    0.000    0.000    0.000    0.000    0.000
   10.002    5.002    5.002    0.002    0.002    0.000    0.000    0.000
    0.000    0.000    0.000    0.000    0.000    0.000    0.000    0.000
   10.002    5.002    5.002    0.002    0.002    0.000    0.000    0.000
    0.000    0.000    0.000    0.000    0.000    0.000    0.000    0.000
   10.002    5.002    5.002    0.002    0.002    0.000    0.000    0.000
    0.000    0.000    0.000    0.000    0.000    0.000    0.000    0.000
   10.002    5.002    5.002    0.002    0.002    0.000    0.000    0.000
    0.000    0.000    0.000    0.000    0.000    0.000    0.000    0.000
   10.002    5.002    5.002    0.002    0.002    0.000    0.000    0.000
    0.000    0.000    0.000    0.000    0.000    0.000    0.000    0.000
   10.002    5.002    5.002    0.002    0.002    0.000    0.000    0.000
    0.000    0.000    0.000    0.000    0.000    0.000    0.000    0.000
   10.002    5.002    5.002    0.002    0.002    0.000    0.000    0.000
    0.000    0.000    0.000    0.000    0.000    0.000    0.000    0.000
   10.002    5.002    5.002    0.002    0.002    0.000    0.000    0.000
    0.000    0.000    0.000    0.000    0.000    0.000    0.000    0.000
   10.002    5.002    5.002    0.002    0.002    0.000    0.000    0.000
    0.000    0.000    0.000    0.000    0.000    0.000    0.000    0.000
   10.002    5.002    5.002    0.002    0.002    0.000    0.000    0.000
    0.000    0.000    0.000    0.000    0.000    0.000    0.000    0.000
   10.002    5.002    5.002    0.002    0.002    0.000    0.000    0.000
    0.000    0.000    0.000    0.000    0.000    0.000    0.000    0.000
   10.002    5.002    5.002    0.002    0.002    0.000    0.000    0.000
    0.000    0.000    0.000    0.000    0.000    0.000    0.000    0.000
   10.002    5.002    5.002    0.002    0.002    0.000    0.000    0.000
    0.000    0.000    0.000    0.000    0.000    0.000    0.000    0.000
   10.002    5.002    5.002    0.002    0.002    0.000    0.000    0.000
    0.000    0.000    0.000    0.000    0.000    0.000    0.000    0.000
   10.002    5.002    5.002    0.002    0.002    0.000    0.000    0.000
    0.000    0.000    0.000    0.000    0.000    0.000    0.000    0.000
   10.002    5.002    5.002    0.002    0.002    0.000    0.000    0.000
    0.000    0.000    0.000    0.000    0.000    0.000    0.000    0.000
   10.002    5.002    5.002    0.002    0.002    0.000    0.000    0.000
    0.000    0.000    0.000    0.000    0.000    0.000    0.000    0.000
   10.002    5.002    5.002    0.002    0.002    0.000    0.000    0.000
    0.000    0.000    0.000    0.000    0.000    0.000    0.000    0.000
   10.002    5.002    5.002    0.002    0.002    0.000    0.000    0.000
    0.000    0.000    0.000    0.000    0.000    0.000    0.000    0.000
   10.002    5.002    5.002    0.002    0.002    0.000    0.000    0.000
    0.000    0.000    0.000    0.000    0.000    0.000    0.000    0.000
   10.002    5.002    5.002    0.002    0.002    0.000    0.000    0.000
    0.000    0.000    0.000    0.000    0.000    0.000    0.000    0.000
   10.002    5.002    5.002    0.002    0.002    0.000    0.000    0.000
    0.000    0.000    0.000    0.000    0.000    0.000    0.000    0.000
   10.002    5.002    5.002    0.002    0.002    0.000    0.000    0.000
    0.000    0.000    0.000    0.000    0.000    0.000    0.000    0.000
   10.002    5.002    5.002    0.002    0.002    0.000    0.000    0.000
    0.000    0.000    0.000    0.000    0.000    0.000    0.000    0.000
   10.002    5.002    5.002    0.002    0.002    0.000    0.000    0.000
    0.000    0.000    0.000    0.000    0.000    0.000    0.000    0.000
   15.002   10.002   10.002    5.002    5.002    0.002    0.002    0.000
    0.000    0.000    0.000    0.000    0.000    0.000    0.000    0.000
   15.002   10.002   10.002    5.002    5.002    0.002    0.002    0.000
    0.000    0.000    0.000    0.000    0.000    0.000    0.000    0.000
   15.002   10.002   10.002    5.002    5.002    0.002    0.002    0.000
    0.000    0.000    0.000    0.000    0.000    0.000    0.000    0.000
   15.002   10.002   10.002    5.002    5.002    0.002    0.002    0.000
    0.000    0.000    0.000    0.000    0.000    0.000    0.000    0.000
   15.002   10.002   10.002    5.002    5.002    0.002    0.002    0.000
    0.000    0.000    0.000    0.000    0.000    0.000    0.000    0.000
   15.002   10.002   10.002    5.002    5.002    0.002    0.002    0.000
    0.000    0.000    0.000    0.000    0.000    0.000    0.000    0.000
   15.002   10.002   10.002    5.002    5.002    0.002    0.002    0.000
    0.000    0.000    0.000    0.000    0.000    0.000    0.000    0.000
   15.002   10.002   10.002    5.002    5.002    0.002    0.002    0.000
    0.000    0.000    0.000    0.000    0.000    0.000    0.000    0.000
   15.002   10.002   10.002    5.002    5.002    0.002    0.002    0.000
    0.000    0.000    0.000    0.000    0.000    0.000    0.000    0.000
   15.002   10.002   10.002    5.002    5.002    0.002    0.002    0.000
    0.000    0.000    0.000    0.000    0.000    0.000    0.000    0.000
   15.002   10.002   10.002    5.002    5.002    0.002    0.002    0.000
    0.000    0.000    0.000    0.000    0.000    0.000    0.000    0.000
   15.002   10.002   10.002    5.002    5.002    0.002    0.002    0.000
    0.000    0.000    0.000    0.000    0.000    0.000    0.000    0.000
   15.002   10.002   10.002    5.002    5.002    0.002    0.002    0.000
    0.000    0.000    0.000    0.000    0.000    0.000    0.000    0.000
   15.002   10.002   10.002    5.002    5.002    0.002    0.002    0.000
    0.000    0.000    0.000    0.000    0.000    0.000    0.000    0.000
   15.002   10.002   10.002    5.002    5.002    0.002    0.002    0.000
    0.000    0.000    0.000    0.000    0.000    0.000    0.000    0.000
   15.002   10.002   10.002    5.002    5.002    0.002    0.002    0.000
    0.000    0.000    0.000    0.000    0.000    0.000    0.000    0.000
   15.002   10.002   10.002    5.002    5.002    0.002    0.002    0.000
    0.000    0.000    0.000    0.000    0.000    0.000    0.000    0.000
   15.002   10.002   10.002    5.002    5.002    0.002    0.002    0.000
    0.000    0.000    0.000    0.000    0.000    0.000    0.000    0.000
   15.002   10.002   10.002    5.002    5.002    0.002    0.002    0.000
    0.000    0.000    0.000    0.000    0.000    0.000    0.000    0.000
   15.002   10.002   10.002    5.002    5.002    0.002    0.002    0.000
    0.000    0.000    0.000    0.000    0.000    0.000    0.000    0.000
   15.002   10.002   10.002    5.002    5.002    0.002    0.002    0.000
    0.000    0.000    0.000    0.000    0.000    0.000    0.000    0.000
   15.002   10.002   10.002    5.002    5.002    0.002    0.002    0.000
    0.000    0.000    0.000    0.000    0.000    0.000    0.000    0.000
   15.002   10.002   10.002    5.002    5.002    0.002    0.002    0.000
    0.000    0.000    0.000    0.000    0.000    0.000    0.000    0.000
   15.002   10.002   10.002    5.002    5.002    0.002    0.002    0.000
    0.000    0.000    0.000    0.000    0.000    0.000    0.000    0.000
   15.002   10.002   10.002    5.002    5.002    0.002    0.002    0.000
    0.000    0.000    0.000    0.000    0.000    0.000    0.000    0.000
   15.002   10.002   10.002    5.002    5.002    0.002    0.002    0.000
    0.000    0.000    0.000    0.000    0.000    0.000    0.000    0.000
   15.002   10.002   10.002    5.002    5.002    0.002    0.002    0.000
    0.000    0.000    0.000    0.000    0.000    0.000    0.000    0.000
   15.002   10.002   10.002    5.002    5.002    0.002    0.002    0.000
    0.000    0.000    0.000    0.000    0.000    0.000    0.000    0.000
   15.002   10.002   10.002    5.002    5.002    0.002    0.002    0.000
    0.000    0.000    0.000    0.000    0.000    0.000    0.000    0.000
   15.002   10.002   10.002    5.002    5.002    0.002    0.002    0.000
    0.000    0.000    0.000    0.000    0.000    0.000    0.000    0.000
   15.002   10.002   10.002    5.002    5.002    0.002    0.002    0.000
    0.000    0.000    0.000    0.000    0.000    0.000    0.000    0.000
   15.002   10.002   10.002    5.002    5.002    0.002    0.002    0.000
    0.000    0.000    0.000    0.000    0.000    0.000    0.000    0.000
   20.002   15.002   15.002   10.002   10.002    5.002    5.002    0.002
    0.002    0.000    0.000    0.000    0.000    0.000    0.000    0.000
   20.002   15.002   15.002   10.002   10.002    5.002    5.002    0.002
    0.002    0.000    0.000    0.000    0.000    0.000    0.000    0.000
   20.002   15.002   15.002   10.002   10.002    5.002    5.002    0.002
    0.002    0.000    0.000    0.000    0.000    0.000    0.000    0.000
   20.002   15.002   15.002   10.002   10.002    5.002    5.002    0.002
    0.002    0.000    0.000    0.000    0.000    0.000    0.000    0.000
   20.002   15.002   15.002   10.002   10.002    5.002    5.002    0.002
    0.002    0.000    0.000    0.000    0.000    0.000    0.000    0.000
   20.002   15.002   15.002   10.002   10.002    5.002    5.002    0.002
    0.002    0.000    0.000    0.000    0.000    0.000    0.000    0.000
   20.002   15.002   15.002   10.002   10.002    5.002    5.002    0.002
    0.002    0.000    0.000    0.000    0.000    0.000    0.000    0.000
   20.002   15.002   15.002   10.002   10.002    5.002    5.002    0.002
    0.002    0.000    0.000    0.000    0.000    0.000    0.000    0.000
   20.002   15.002   15.002   10.002   10.002    5.002    5.002    0.002
    0.002    0.000    0.000    0.000    0.000    0.000    0.000    0.000
   20.002   15.002   15.002   10.002   10.002    5.002    5.002    0.002
    0.002    0.000    0.000    0.000    0.000    0.000    0.000    0.000
   20.002   15.002   15.002   10.002   10.002    5.002    5.002    0.002
    0.002    0.000    0.000    0.000    0.000    0.000    0.000    0.000
   20.002   15.002   15.002   10.002   10.002    5.002    5.002    0.002
    0.002    0.000    0.000    0.000    0.000    0.000    0.000    0.000
   20.002   15.002   15.002   10.002   10.002    5.002    5.002    0.002
    0.002    0.000    0.000    0.000    0.000    0.000    0.000    0.000
   20.002   15.002   15.002   10.002   10.002    5.002    5.002    0.002
    0.002    0.000    0.000    0.000    0.000    0.000    0.000    0.000
   20.002   15.002   15.002   10.002   10.002    5.002    5.002    0.002
    0.002    0.000    0.000    0.000    0.000    0.000    0.000    0.000
   20.002   15.002   15.002   10.002   10.002    5.002    5.002    0.002
    0.002    0.000    0.000    0.000    0.000    0.000    0.000    0.000
   20.002   15.002   15.002   10.002   10.002    5.002    5.002    0.002
    0.002    0.000    0.000    0.000    0.000    0.000    0.000    0.000
   20.002   15.002   15.002   10.002   10.002    5.002    5.002    0.002
    0.002    0.000    0.000    0.000    0.000    0.000    0.000    0.000
   20.002   15.002   15.002   10.002   10.002    5.002    5.002    0.002
    0.002    0.000    0.000    0.000    0.000    0.000    0.000    0.000
   20.002   15.002   15.002   10.002   10.002    5.002    5.002    0.002
    0.002    0.000    0.000    0.000    0.000    0.000    0.000    0.000
   20.002   15.002   15.002   10.002   10.002    5.002    5.002    0.002
    0.002    0.000    0.000    0.000    0.000    0.000    0.000    0.000
   20.002   15.002   15.002   10.002   10.002    5.002    5.002    0.002
    0.002    0.000    0.000    0.000    0.000    0.000    0.000    0.000
   20.002   15.002   15.002   10.002   10.002    5.002    5.002    0.002
    0.002    0.000    0.000    0.000    0.000    0.000    0.000    0.000
   20.002   15.002   15.002   10.002   10.002    5.002    5.002    0.002
    0.002    0.000    0.000    0.000    0.000    0.000    0.000    0.000
   20.002   15.002   15.002   10.002   10.002    5.002    5.002    0.002
    0.002    0.000    0.000    0.000    0.000    0.000    0.000    0.000
   20.002   15.002   15.002   10.002   10.002    5.002    5.002    0.002