-- Eclipse grid exported from SBED, a product from Geomodeling Technology Corp
-- More information about SBED is available at http://www.geomodeling.com/
-- SBED project name: project3 
-- Model name: Flat-NoMud Lamina-Thickening Upward 
-- Realization name: Bedding Realization 2 
-- Scaling factors used during export(x,y,z): 1.000000 1.000000 1.000000
-- SBED version: SBED 4.2 
-- Export date: 20/11/2012 
-- Export time: 15:45:57 
-- Length Unit : m
-- PERMX Unit : mD
-- PORO Unit : Fraction
 
MAPAXES
0.0000 0.0000
0.0000 3.0000
3.0000 3.0000 /

SPECGRID
3 3 3 1 F /

COORD
0.0000 0.0000 -3.0000 0.0000 0.0000 0.0000 
1.0000 0.0000 -3.0000 1.0000 0.0000 0.0000 
2.0000 0.0000 -3.0000 2.0000 0.0000 0.0000 
3.0000 0.0000 -3.0000 3.0000 0.0000 0.0000 
0.0000 1.0000 -3.0000 0.0000 1.0000 0.0000 
1.0000 1.0000 -3.0000 1.0000 1.0000 0.0000 
2.0000 1.0000 -3.0000 2.0000 1.0000 0.0000 
3.0000 1.0000 -3.0000 3.0000 1.0000 0.0000 
0.0000 2.0000 -3.0000 0.0000 2.0000 0.0000 
1.0000 2.0000 -3.0000 1.0000 2.0000 0.0000 
2.0000 2.0000 -3.0000 2.0000 2.0000 0.0000 
3.0000 2.0000 -3.0000 3.0000 2.0000 0.0000 
0.0000 3.0000 -3.0000 0.0000 3.0000 0.0000 
1.0000 3.0000 -3.0000 1.0000 3.0000 0.0000 
2.0000 3.0000 -3.0000 2.0000 3.0000 0.0000 
3.0000 3.0000 -3.0000 3.0000 3.0000 0.0000 
/

ZCORN
 -3.0000 -3.0000 -3.0000 -3.0000 -3.0000 -3.0000 -3.0000 -3.0000
 -3.0000 -3.0000 -3.0000 -3.0000 -3.0000 -3.0000 -3.0000 -3.0000
 -3.0000 -3.0000 -3.0000 -3.0000 -3.0000 -3.0000 -3.0000 -3.0000
 -3.0000 -3.0000 -3.0000 -3.0000 -3.0000 -3.0000 -3.0000 -3.0000
 -3.0000 -3.0000 -3.0000 -3.0000 -2.0000 -2.0000 -2.0000 -2.0000
 -2.0000 -2.0000 -2.0000 -2.0000 -2.0000 -2.0000 -2.0000 -2.0000
 -2.0000 -2.0000 -2.0000 -2.0000 -2.0000 -2.0000 -2.0000 -2.0000
 -2.0000 -2.0000 -2.0000 -2.0000 -2.0000 -2.0000 -2.0000 -2.0000
 -2.0000 -2.0000 -2.0000 -2.0000 -2.0000 -2.0000 -2.0000 -2.0000
 -2.0000 -2.0000 -2.0000 -2.0000 -2.0000 -2.0000 -2.0000 -2.0000
 -2.0000 -2.0000 -2.0000 -2.0000 -2.0000 -2.0000 -2.0000 -2.0000
 -2.0000 -2.0000 -2.0000 -2.0000 -2.0000 -2.0000 -2.0000 -2.0000
 -2.0000 -2.0000 -2.0000 -2.0000 -2.0000 -2.0000 -2.0000 -2.0000
 -2.0000 -2.0000 -2.0000 -2.0000 -1.0000 -1.0000 -1.0000 -1.0000
 -1.0000 -1.0000 -1.0000 -1.0000 -1.0000 -1.0000 -1.0000 -1.0000
 -1.0000 -1.0000 -1.0000 -1.0000 -1.0000 -1.0000 -1.0000 -1.0000
 -1.0000 -1.0000 -1.0000 -1.0000 -1.0000 -1.0000 -1.0000 -1.0000
 -1.0000 -1.0000 -1.0000 -1.0000 -1.0000 -1.0000 -1.0000 -1.0000
 -1.0000 -1.0000 -1.0000 -1.0000 -1.0000 -1.0000 -1.0000 -1.0000
 -1.0000 -1.0000 -1.0000 -1.0000 -1.0000 -1.0000 -1.0000 -1.0000
 -1.0000 -1.0000 -1.0000 -1.0000 -1.0000 -1.0000 -1.0000 -1.0000
 -1.0000 -1.0000 -1.0000 -1.0000 -1.0000 -1.0000 -1.0000 -1.0000
 -1.0000 -1.0000 -1.0000 -1.0000 0.0000 0.0000 0.0000 0.0000
 0.0000 0.0000 0.0000 0.0000 0.0000 0.0000 0.0000 0.0000
 0.0000 0.0000 0.0000 0.0000 0.0000 0.0000 0.0000 0.0000
 0.0000 0.0000 0.0000 0.0000 0.0000 0.0000 0.0000 0.0000
 0.0000 0.0000 0.0000 0.0000 0.0000 0.0000 0.0000 0.0000
/

ACTNUM
 1 1 1 1 1 1 1 1 1 1 1 1 1 1 1 1
 1 1 1 1 1 1 1 1 1 1 1
/

PERMX
 100.000 100.000 100.000 100.000 100.000 100.000 100.000 100.000
 100.000 0.100 0.100 0.100 0.100 0.100 0.100 0.100
 0.100 0.100 100.000 100.000 100.000 100.000 100.000 100.000
 100.000 100.000 100.000
/

PORO
 0.100 0.100 0.100 0.100 0.100
 0.100 0.100 0.100 0.100 0.100 0.100 0.100 0.100
 0.100 0.100 0.100 0.100 0.100 0.100 0.100 0.100
 0.100 0.100 0.100 0.100 0.100 0.100
/

-- 1 = PBED SAND1--
-- 2 = PBED MUD--
ROCKTYPE
 1 1 1 1 1 1 1 1
 1 2 2 2 2 2 2 2
 2 2 1 1 1 1 1 1
 1 1 1
/
